24
 Atoms. Timestep: 0
1 -0.04 -0.04 -0.025
1 -0.032 -0.032 -0.015
1 -0.024 -0.024 -0.005
1 -0.016 -0.016 0.005
1 -0.008 -0.008 0.015
1 0 0 0.025
2 -0.0133333 -0.0133333 -0.025
2 -0.0106667 -0.0106667 -0.015
2 -0.008 -0.008 -0.005
2 -0.00533333 -0.00533333 0.005
2 -0.00266667 -0.00266667 0.015
2 0 0 0.025
3 0.0133333 0.0133333 -0.025
3 0.0106667 0.0106667 -0.015
3 0.008 0.008 -0.005
3 0.00533333 0.00533333 0.005
3 0.00266667 0.00266667 0.015
3 0 0 0.025
4 0.04 0.04 -0.025
4 0.032 0.032 -0.015
4 0.024 0.024 -0.005
4 0.016 0.016 0.005
4 0.008 0.008 0.015
4 0 0 0.025
