LAMMPS (29 Aug 2024)
  using 1 OpenMP thread(s) per MPI task
atom_style hybrid angle sphere
WARNING: Atom style hybrid defines both, per-type and per-atom masses; both must be set, but only per-atom masses will be used (src/atom_vec_hybrid.cpp:132)
units si
processors	* * 1
comm_modify vel yes

region simulationStation block -0.05 0.05 -0.015 0.015 -0.05 0.05
create_box 100 simulationStation bond/types 100000 extra/bond/per/atom 100 angle/types 10000 extra/angle/per/atom 100
Created orthogonal box = (-0.05 -0.015 -0.05) to (0.05 0.015 0.05)
  1 by 1 by 1 MPI processor grid
change_box	all boundary f f f
Changing box ...

pair_style hybrid/overlay granular lj/cut 0
pair_coeff  * * granular hertz/material 0 0 0 tangential linear_nohistory 0 0
pair_coeff  * * lj/cut 0 0 0

special_bonds lj/coul 0 1.0 1.0
Finding 1-2 1-3 1-4 neighbors ...
  special bond factors lj:    0        1        1       
  special bond factors coul:  0        1        1       
     0 = max # of 1-2 neighbors
     1 = max # of special neighbors
  special bonds CPU = 0.000 seconds
bond_style harmonic
angle_style cosine

bond_coeff * 0 0
angle_coeff * 0
fix integration all nve/sphere
neigh_modify page 500000 one 50000


### Here we will begin to include particles ###


include beam_1.txt
create_atoms 1 single -0.04 0.0 -0.043500000000000004
Created 1 atoms
  using lattice units in orthogonal box = (-0.05 -0.015 -0.05) to (0.05 0.015 0.05)
  create_atoms CPU = 0.000 seconds
create_atoms 1 single -0.04 0.0 -0.04175
Created 1 atoms
  using lattice units in orthogonal box = (-0.05 -0.015 -0.05) to (0.05 0.015 0.05)
  create_atoms CPU = 0.001 seconds
create_atoms 1 single -0.04 0.0 -0.04
Created 1 atoms
  using lattice units in orthogonal box = (-0.05 -0.015 -0.05) to (0.05 0.015 0.05)
  create_atoms CPU = 0.000 seconds
create_atoms 1 single -0.04 0.0 -0.03825
Created 1 atoms
  using lattice units in orthogonal box = (-0.05 -0.015 -0.05) to (0.05 0.015 0.05)
  create_atoms CPU = 0.000 seconds
create_atoms 1 single -0.04 0.0 -0.0365
Created 1 atoms
  using lattice units in orthogonal box = (-0.05 -0.015 -0.05) to (0.05 0.015 0.05)
  create_atoms CPU = 0.000 seconds
set type 1 diameter 0.003
Setting atom values ...
  5 settings made for diameter
set type 1 density 0.01
Setting atom values ...
  5 settings made for density
bond_coeff 1 257.14285714285694 0.0017500000000000016
include bonds_1.txt
create_bonds single/bond 1 1 2
Finding 1-2 1-3 1-4 neighbors ...
  special bond factors lj:    0        1        1       
  special bond factors coul:  0        1        1       
     1 = max # of 1-2 neighbors
     1 = max # of special neighbors
  special bonds CPU = 0.000 seconds
create_bonds single/bond 1 2 3
Finding 1-2 1-3 1-4 neighbors ...
  special bond factors lj:    0        1        1       
  special bond factors coul:  0        1        1       
     2 = max # of 1-2 neighbors
     2 = max # of special neighbors
  special bonds CPU = 0.000 seconds
create_bonds single/bond 1 3 4
Finding 1-2 1-3 1-4 neighbors ...
  special bond factors lj:    0        1        1       
  special bond factors coul:  0        1        1       
     2 = max # of 1-2 neighbors
     2 = max # of special neighbors
  special bonds CPU = 0.000 seconds
create_bonds single/bond 1 4 5
Finding 1-2 1-3 1-4 neighbors ...
  special bond factors lj:    0        1        1       
  special bond factors coul:  0        1        1       
     2 = max # of 1-2 neighbors
     2 = max # of special neighbors
  special bonds CPU = 0.000 seconds
angle_coeff 1 0.0003857142857142854
include angles_1.txt
create_bonds single/angle 1 1 2 3
Finding 1-2 1-3 1-4 neighbors ...
  special bond factors lj:    0        1        1       
  special bond factors coul:  0        1        1       
     2 = max # of 1-2 neighbors
     2 = max # of special neighbors
  special bonds CPU = 0.000 seconds
create_bonds single/angle 1 2 3 4
Finding 1-2 1-3 1-4 neighbors ...
  special bond factors lj:    0        1        1       
  special bond factors coul:  0        1        1       
     2 = max # of 1-2 neighbors
     2 = max # of special neighbors
  special bonds CPU = 0.000 seconds
create_bonds single/angle 1 3 4 5
Finding 1-2 1-3 1-4 neighbors ...
  special bond factors lj:    0        1        1       
  special bond factors coul:  0        1        1       
     2 = max # of 1-2 neighbors
     2 = max # of special neighbors
  special bonds CPU = 0.000 seconds

include beam_2.txt
create_atoms 2 single -0.04 0.0 -0.0235
Created 1 atoms
  using lattice units in orthogonal box = (-0.05 -0.015 -0.05) to (0.05 0.015 0.05)
  create_atoms CPU = 0.000 seconds
create_atoms 2 single -0.04 0.0 -0.02175
Created 1 atoms
  using lattice units in orthogonal box = (-0.05 -0.015 -0.05) to (0.05 0.015 0.05)
  create_atoms CPU = 0.000 seconds
create_atoms 2 single -0.04 0.0 -0.02
Created 1 atoms
  using lattice units in orthogonal box = (-0.05 -0.015 -0.05) to (0.05 0.015 0.05)
  create_atoms CPU = 0.000 seconds
create_atoms 2 single -0.04 0.0 -0.018250000000000002
Created 1 atoms
  using lattice units in orthogonal box = (-0.05 -0.015 -0.05) to (0.05 0.015 0.05)
  create_atoms CPU = 0.000 seconds
create_atoms 2 single -0.04 0.0 -0.0165
Created 1 atoms
  using lattice units in orthogonal box = (-0.05 -0.015 -0.05) to (0.05 0.015 0.05)
  create_atoms CPU = 0.000 seconds
set type 2 diameter 0.003
Setting atom values ...
  5 settings made for diameter
set type 2 density 0.01
Setting atom values ...
  5 settings made for density
bond_coeff 2 257.14285714285717 0.0017499999999999998
include bonds_2.txt
create_bonds single/bond 2 6 7
Finding 1-2 1-3 1-4 neighbors ...
  special bond factors lj:    0        1        1       
  special bond factors coul:  0        1        1       
     2 = max # of 1-2 neighbors
     2 = max # of special neighbors
  special bonds CPU = 0.000 seconds
create_bonds single/bond 2 7 8
Finding 1-2 1-3 1-4 neighbors ...
  special bond factors lj:    0        1        1       
  special bond factors coul:  0        1        1       
     2 = max # of 1-2 neighbors
     2 = max # of special neighbors
  special bonds CPU = 0.000 seconds
create_bonds single/bond 2 8 9
Finding 1-2 1-3 1-4 neighbors ...
  special bond factors lj:    0        1        1       
  special bond factors coul:  0        1        1       
     2 = max # of 1-2 neighbors
     2 = max # of special neighbors
  special bonds CPU = 0.000 seconds
create_bonds single/bond 2 9 10
Finding 1-2 1-3 1-4 neighbors ...
  special bond factors lj:    0        1        1       
  special bond factors coul:  0        1        1       
     2 = max # of 1-2 neighbors
     2 = max # of special neighbors
  special bonds CPU = 0.000 seconds
angle_coeff 2 0.0003857142857142857
include angles_2.txt
create_bonds single/angle 2 6 7 8
Finding 1-2 1-3 1-4 neighbors ...
  special bond factors lj:    0        1        1       
  special bond factors coul:  0        1        1       
     2 = max # of 1-2 neighbors
     2 = max # of special neighbors
  special bonds CPU = 0.000 seconds
create_bonds single/angle 2 7 8 9
Finding 1-2 1-3 1-4 neighbors ...
  special bond factors lj:    0        1        1       
  special bond factors coul:  0        1        1       
     2 = max # of 1-2 neighbors
     2 = max # of special neighbors
  special bonds CPU = 0.000 seconds
create_bonds single/angle 2 8 9 10
Finding 1-2 1-3 1-4 neighbors ...
  special bond factors lj:    0        1        1       
  special bond factors coul:  0        1        1       
     2 = max # of 1-2 neighbors
     2 = max # of special neighbors
  special bonds CPU = 0.000 seconds

include beam_3.txt
create_atoms 3 single -0.04 0.0 -0.0035
Created 1 atoms
  using lattice units in orthogonal box = (-0.05 -0.015 -0.05) to (0.05 0.015 0.05)
  create_atoms CPU = 0.000 seconds
create_atoms 3 single -0.04 0.0 -0.00175
Created 1 atoms
  using lattice units in orthogonal box = (-0.05 -0.015 -0.05) to (0.05 0.015 0.05)
  create_atoms CPU = 0.000 seconds
create_atoms 3 single -0.04 0.0 0.0
Created 1 atoms
  using lattice units in orthogonal box = (-0.05 -0.015 -0.05) to (0.05 0.015 0.05)
  create_atoms CPU = 0.000 seconds
create_atoms 3 single -0.04 0.0 0.0017500000000000003
Created 1 atoms
  using lattice units in orthogonal box = (-0.05 -0.015 -0.05) to (0.05 0.015 0.05)
  create_atoms CPU = 0.000 seconds
create_atoms 3 single -0.04 0.0 0.0035
Created 1 atoms
  using lattice units in orthogonal box = (-0.05 -0.015 -0.05) to (0.05 0.015 0.05)
  create_atoms CPU = 0.000 seconds
set type 3 diameter 0.003
Setting atom values ...
  5 settings made for diameter
set type 3 density 0.01
Setting atom values ...
  5 settings made for density
bond_coeff 3 257.1428571428571 0.00175
include bonds_3.txt
create_bonds single/bond 3 11 12
Finding 1-2 1-3 1-4 neighbors ...
  special bond factors lj:    0        1        1       
  special bond factors coul:  0        1        1       
     2 = max # of 1-2 neighbors
     2 = max # of special neighbors
  special bonds CPU = 0.000 seconds
create_bonds single/bond 3 12 13
Finding 1-2 1-3 1-4 neighbors ...
  special bond factors lj:    0        1        1       
  special bond factors coul:  0        1        1       
     2 = max # of 1-2 neighbors
     2 = max # of special neighbors
  special bonds CPU = 0.000 seconds
create_bonds single/bond 3 13 14
Finding 1-2 1-3 1-4 neighbors ...
  special bond factors lj:    0        1        1       
  special bond factors coul:  0        1        1       
     2 = max # of 1-2 neighbors
     2 = max # of special neighbors
  special bonds CPU = 0.000 seconds
create_bonds single/bond 3 14 15
Finding 1-2 1-3 1-4 neighbors ...
  special bond factors lj:    0        1        1       
  special bond factors coul:  0        1        1       
     2 = max # of 1-2 neighbors
     2 = max # of special neighbors
  special bonds CPU = 0.000 seconds
angle_coeff 3 0.0003857142857142857
include angles_3.txt
create_bonds single/angle 3 11 12 13
Finding 1-2 1-3 1-4 neighbors ...
  special bond factors lj:    0        1        1       
  special bond factors coul:  0        1        1       
     2 = max # of 1-2 neighbors
     2 = max # of special neighbors
  special bonds CPU = 0.000 seconds
create_bonds single/angle 3 12 13 14
Finding 1-2 1-3 1-4 neighbors ...
  special bond factors lj:    0        1        1       
  special bond factors coul:  0        1        1       
     2 = max # of 1-2 neighbors
     2 = max # of special neighbors
  special bonds CPU = 0.000 seconds
create_bonds single/angle 3 13 14 15
Finding 1-2 1-3 1-4 neighbors ...
  special bond factors lj:    0        1        1       
  special bond factors coul:  0        1        1       
     2 = max # of 1-2 neighbors
     2 = max # of special neighbors
  special bonds CPU = 0.000 seconds

include beam_4.txt
create_atoms 4 single -0.04 0.0 0.016499999999999997
Created 1 atoms
  using lattice units in orthogonal box = (-0.05 -0.015 -0.05) to (0.05 0.015 0.05)
  create_atoms CPU = 0.000 seconds
create_atoms 4 single -0.04 0.0 0.018249999999999995
Created 1 atoms
  using lattice units in orthogonal box = (-0.05 -0.015 -0.05) to (0.05 0.015 0.05)
  create_atoms CPU = 0.000 seconds
create_atoms 4 single -0.04 0.0 0.019999999999999997
Created 1 atoms
  using lattice units in orthogonal box = (-0.05 -0.015 -0.05) to (0.05 0.015 0.05)
  create_atoms CPU = 0.000 seconds
create_atoms 4 single -0.04 0.0 0.02175
Created 1 atoms
  using lattice units in orthogonal box = (-0.05 -0.015 -0.05) to (0.05 0.015 0.05)
  create_atoms CPU = 0.000 seconds
create_atoms 4 single -0.04 0.0 0.023499999999999997
Created 1 atoms
  using lattice units in orthogonal box = (-0.05 -0.015 -0.05) to (0.05 0.015 0.05)
  create_atoms CPU = 0.000 seconds
set type 4 diameter 0.003
Setting atom values ...
  5 settings made for diameter
set type 4 density 0.01
Setting atom values ...
  5 settings made for density
bond_coeff 4 257.14285714285717 0.0017499999999999998
include bonds_4.txt
create_bonds single/bond 4 16 17
Finding 1-2 1-3 1-4 neighbors ...
  special bond factors lj:    0        1        1       
  special bond factors coul:  0        1        1       
     2 = max # of 1-2 neighbors
     2 = max # of special neighbors
  special bonds CPU = 0.000 seconds
create_bonds single/bond 4 17 18
Finding 1-2 1-3 1-4 neighbors ...
  special bond factors lj:    0        1        1       
  special bond factors coul:  0        1        1       
     2 = max # of 1-2 neighbors
     2 = max # of special neighbors
  special bonds CPU = 0.000 seconds
create_bonds single/bond 4 18 19
Finding 1-2 1-3 1-4 neighbors ...
  special bond factors lj:    0        1        1       
  special bond factors coul:  0        1        1       
     2 = max # of 1-2 neighbors
     2 = max # of special neighbors
  special bonds CPU = 0.000 seconds
create_bonds single/bond 4 19 20
Finding 1-2 1-3 1-4 neighbors ...
  special bond factors lj:    0        1        1       
  special bond factors coul:  0        1        1       
     2 = max # of 1-2 neighbors
     2 = max # of special neighbors
  special bonds CPU = 0.000 seconds
angle_coeff 4 0.0003857142857142857
include angles_4.txt
create_bonds single/angle 4 16 17 18
Finding 1-2 1-3 1-4 neighbors ...
  special bond factors lj:    0        1        1       
  special bond factors coul:  0        1        1       
     2 = max # of 1-2 neighbors
     2 = max # of special neighbors
  special bonds CPU = 0.000 seconds
create_bonds single/angle 4 17 18 19
Finding 1-2 1-3 1-4 neighbors ...
  special bond factors lj:    0        1        1       
  special bond factors coul:  0        1        1       
     2 = max # of 1-2 neighbors
     2 = max # of special neighbors
  special bonds CPU = 0.000 seconds
create_bonds single/angle 4 18 19 20
Finding 1-2 1-3 1-4 neighbors ...
  special bond factors lj:    0        1        1       
  special bond factors coul:  0        1        1       
     2 = max # of 1-2 neighbors
     2 = max # of special neighbors
  special bonds CPU = 0.000 seconds

include beam_5.txt
create_atoms 5 single -0.04 0.0 0.0365
Created 1 atoms
  using lattice units in orthogonal box = (-0.05 -0.015 -0.05) to (0.05 0.015 0.05)
  create_atoms CPU = 0.000 seconds
create_atoms 5 single -0.04 0.0 0.03825
Created 1 atoms
  using lattice units in orthogonal box = (-0.05 -0.015 -0.05) to (0.05 0.015 0.05)
  create_atoms CPU = 0.000 seconds
create_atoms 5 single -0.04 0.0 0.04
Created 1 atoms
  using lattice units in orthogonal box = (-0.05 -0.015 -0.05) to (0.05 0.015 0.05)
  create_atoms CPU = 0.000 seconds
create_atoms 5 single -0.04 0.0 0.04175
Created 1 atoms
  using lattice units in orthogonal box = (-0.05 -0.015 -0.05) to (0.05 0.015 0.05)
  create_atoms CPU = 0.000 seconds
create_atoms 5 single -0.04 0.0 0.043500000000000004
Created 1 atoms
  using lattice units in orthogonal box = (-0.05 -0.015 -0.05) to (0.05 0.015 0.05)
  create_atoms CPU = 0.000 seconds
set type 5 diameter 0.003
Setting atom values ...
  5 settings made for diameter
set type 5 density 0.01
Setting atom values ...
  5 settings made for density
bond_coeff 5 257.14285714285694 0.0017500000000000016
include bonds_5.txt
create_bonds single/bond 5 21 22
Finding 1-2 1-3 1-4 neighbors ...
  special bond factors lj:    0        1        1       
  special bond factors coul:  0        1        1       
     2 = max # of 1-2 neighbors
     2 = max # of special neighbors
  special bonds CPU = 0.000 seconds
create_bonds single/bond 5 22 23
Finding 1-2 1-3 1-4 neighbors ...
  special bond factors lj:    0        1        1       
  special bond factors coul:  0        1        1       
     2 = max # of 1-2 neighbors
     2 = max # of special neighbors
  special bonds CPU = 0.000 seconds
create_bonds single/bond 5 23 24
Finding 1-2 1-3 1-4 neighbors ...
  special bond factors lj:    0        1        1       
  special bond factors coul:  0        1        1       
     2 = max # of 1-2 neighbors
     2 = max # of special neighbors
  special bonds CPU = 0.000 seconds
create_bonds single/bond 5 24 25
Finding 1-2 1-3 1-4 neighbors ...
  special bond factors lj:    0        1        1       
  special bond factors coul:  0        1        1       
     2 = max # of 1-2 neighbors
     2 = max # of special neighbors
  special bonds CPU = 0.000 seconds
angle_coeff 5 0.0003857142857142854
include angles_5.txt
create_bonds single/angle 5 21 22 23
Finding 1-2 1-3 1-4 neighbors ...
  special bond factors lj:    0        1        1       
  special bond factors coul:  0        1        1       
     2 = max # of 1-2 neighbors
     2 = max # of special neighbors
  special bonds CPU = 0.000 seconds
create_bonds single/angle 5 22 23 24
Finding 1-2 1-3 1-4 neighbors ...
  special bond factors lj:    0        1        1       
  special bond factors coul:  0        1        1       
     2 = max # of 1-2 neighbors
     2 = max # of special neighbors
  special bonds CPU = 0.000 seconds
create_bonds single/angle 5 23 24 25
Finding 1-2 1-3 1-4 neighbors ...
  special bond factors lj:    0        1        1       
  special bond factors coul:  0        1        1       
     2 = max # of 1-2 neighbors
     2 = max # of special neighbors
  special bonds CPU = 0.000 seconds

include beam_6.txt
create_atoms 6 single -0.03111111111111111 0.0 -0.043500000000000004
Created 1 atoms
  using lattice units in orthogonal box = (-0.05 -0.015 -0.05) to (0.05 0.015 0.05)
  create_atoms CPU = 0.000 seconds
create_atoms 6 single -0.03111111111111111 0.0 -0.04175
Created 1 atoms
  using lattice units in orthogonal box = (-0.05 -0.015 -0.05) to (0.05 0.015 0.05)
  create_atoms CPU = 0.000 seconds
create_atoms 6 single -0.03111111111111111 0.0 -0.04
Created 1 atoms
  using lattice units in orthogonal box = (-0.05 -0.015 -0.05) to (0.05 0.015 0.05)
  create_atoms CPU = 0.000 seconds
create_atoms 6 single -0.03111111111111111 0.0 -0.03825
Created 1 atoms
  using lattice units in orthogonal box = (-0.05 -0.015 -0.05) to (0.05 0.015 0.05)
  create_atoms CPU = 0.000 seconds
create_atoms 6 single -0.03111111111111111 0.0 -0.0365
Created 1 atoms
  using lattice units in orthogonal box = (-0.05 -0.015 -0.05) to (0.05 0.015 0.05)
  create_atoms CPU = 0.000 seconds
set type 6 diameter 0.003
Setting atom values ...
  5 settings made for diameter
set type 6 density 0.01
Setting atom values ...
  5 settings made for density
bond_coeff 6 257.14285714285694 0.0017500000000000016
include bonds_6.txt
create_bonds single/bond 6 26 27
Finding 1-2 1-3 1-4 neighbors ...
  special bond factors lj:    0        1        1       
  special bond factors coul:  0        1        1       
     2 = max # of 1-2 neighbors
     2 = max # of special neighbors
  special bonds CPU = 0.000 seconds
create_bonds single/bond 6 27 28
Finding 1-2 1-3 1-4 neighbors ...
  special bond factors lj:    0        1        1       
  special bond factors coul:  0        1        1       
     2 = max # of 1-2 neighbors
     2 = max # of special neighbors
  special bonds CPU = 0.000 seconds
create_bonds single/bond 6 28 29
Finding 1-2 1-3 1-4 neighbors ...
  special bond factors lj:    0        1        1       
  special bond factors coul:  0        1        1       
     2 = max # of 1-2 neighbors
     2 = max # of special neighbors
  special bonds CPU = 0.000 seconds
create_bonds single/bond 6 29 30
Finding 1-2 1-3 1-4 neighbors ...
  special bond factors lj:    0        1        1       
  special bond factors coul:  0        1        1       
     2 = max # of 1-2 neighbors
     2 = max # of special neighbors
  special bonds CPU = 0.000 seconds
angle_coeff 6 0.0003857142857142854
include angles_6.txt
create_bonds single/angle 6 26 27 28
Finding 1-2 1-3 1-4 neighbors ...
  special bond factors lj:    0        1        1       
  special bond factors coul:  0        1        1       
     2 = max # of 1-2 neighbors
     2 = max # of special neighbors
  special bonds CPU = 0.000 seconds
create_bonds single/angle 6 27 28 29
Finding 1-2 1-3 1-4 neighbors ...
  special bond factors lj:    0        1        1       
  special bond factors coul:  0        1        1       
     2 = max # of 1-2 neighbors
     2 = max # of special neighbors
  special bonds CPU = 0.000 seconds
create_bonds single/angle 6 28 29 30
Finding 1-2 1-3 1-4 neighbors ...
  special bond factors lj:    0        1        1       
  special bond factors coul:  0        1        1       
     2 = max # of 1-2 neighbors
     2 = max # of special neighbors
  special bonds CPU = 0.000 seconds

include beam_7.txt
create_atoms 7 single -0.03111111111111111 0.0 -0.0235
Created 1 atoms
  using lattice units in orthogonal box = (-0.05 -0.015 -0.05) to (0.05 0.015 0.05)
  create_atoms CPU = 0.000 seconds
create_atoms 7 single -0.03111111111111111 0.0 -0.02175
Created 1 atoms
  using lattice units in orthogonal box = (-0.05 -0.015 -0.05) to (0.05 0.015 0.05)
  create_atoms CPU = 0.000 seconds
create_atoms 7 single -0.03111111111111111 0.0 -0.02
Created 1 atoms
  using lattice units in orthogonal box = (-0.05 -0.015 -0.05) to (0.05 0.015 0.05)
  create_atoms CPU = 0.000 seconds
create_atoms 7 single -0.03111111111111111 0.0 -0.018250000000000002
Created 1 atoms
  using lattice units in orthogonal box = (-0.05 -0.015 -0.05) to (0.05 0.015 0.05)
  create_atoms CPU = 0.000 seconds
create_atoms 7 single -0.03111111111111111 0.0 -0.0165
Created 1 atoms
  using lattice units in orthogonal box = (-0.05 -0.015 -0.05) to (0.05 0.015 0.05)
  create_atoms CPU = 0.000 seconds
set type 7 diameter 0.003
Setting atom values ...
  5 settings made for diameter
set type 7 density 0.01
Setting atom values ...
  5 settings made for density
bond_coeff 7 257.14285714285717 0.0017499999999999998
include bonds_7.txt
create_bonds single/bond 7 31 32
Finding 1-2 1-3 1-4 neighbors ...
  special bond factors lj:    0        1        1       
  special bond factors coul:  0        1        1       
     2 = max # of 1-2 neighbors
     2 = max # of special neighbors
  special bonds CPU = 0.000 seconds
create_bonds single/bond 7 32 33
Finding 1-2 1-3 1-4 neighbors ...
  special bond factors lj:    0        1        1       
  special bond factors coul:  0        1        1       
     2 = max # of 1-2 neighbors
     2 = max # of special neighbors
  special bonds CPU = 0.000 seconds
create_bonds single/bond 7 33 34
Finding 1-2 1-3 1-4 neighbors ...
  special bond factors lj:    0        1        1       
  special bond factors coul:  0        1        1       
     2 = max # of 1-2 neighbors
     2 = max # of special neighbors
  special bonds CPU = 0.000 seconds
create_bonds single/bond 7 34 35
Finding 1-2 1-3 1-4 neighbors ...
  special bond factors lj:    0        1        1       
  special bond factors coul:  0        1        1       
     2 = max # of 1-2 neighbors
     2 = max # of special neighbors
  special bonds CPU = 0.000 seconds
angle_coeff 7 0.0003857142857142857
include angles_7.txt
create_bonds single/angle 7 31 32 33
Finding 1-2 1-3 1-4 neighbors ...
  special bond factors lj:    0        1        1       
  special bond factors coul:  0        1        1       
     2 = max # of 1-2 neighbors
     2 = max # of special neighbors
  special bonds CPU = 0.000 seconds
create_bonds single/angle 7 32 33 34
Finding 1-2 1-3 1-4 neighbors ...
  special bond factors lj:    0        1        1       
  special bond factors coul:  0        1        1       
     2 = max # of 1-2 neighbors
     2 = max # of special neighbors
  special bonds CPU = 0.000 seconds
create_bonds single/angle 7 33 34 35
Finding 1-2 1-3 1-4 neighbors ...
  special bond factors lj:    0        1        1       
  special bond factors coul:  0        1        1       
     2 = max # of 1-2 neighbors
     2 = max # of special neighbors
  special bonds CPU = 0.000 seconds

include beam_8.txt
create_atoms 8 single -0.03111111111111111 0.0 -0.0035
Created 1 atoms
  using lattice units in orthogonal box = (-0.05 -0.015 -0.05) to (0.05 0.015 0.05)
  create_atoms CPU = 0.000 seconds
create_atoms 8 single -0.03111111111111111 0.0 -0.00175
Created 1 atoms
  using lattice units in orthogonal box = (-0.05 -0.015 -0.05) to (0.05 0.015 0.05)
  create_atoms CPU = 0.000 seconds
create_atoms 8 single -0.03111111111111111 0.0 0.0
Created 1 atoms
  using lattice units in orthogonal box = (-0.05 -0.015 -0.05) to (0.05 0.015 0.05)
  create_atoms CPU = 0.000 seconds
create_atoms 8 single -0.03111111111111111 0.0 0.0017500000000000003
Created 1 atoms
  using lattice units in orthogonal box = (-0.05 -0.015 -0.05) to (0.05 0.015 0.05)
  create_atoms CPU = 0.000 seconds
create_atoms 8 single -0.03111111111111111 0.0 0.0035
Created 1 atoms
  using lattice units in orthogonal box = (-0.05 -0.015 -0.05) to (0.05 0.015 0.05)
  create_atoms CPU = 0.000 seconds
set type 8 diameter 0.003
Setting atom values ...
  5 settings made for diameter
set type 8 density 0.01
Setting atom values ...
  5 settings made for density
bond_coeff 8 257.1428571428571 0.00175
include bonds_8.txt
create_bonds single/bond 8 36 37
Finding 1-2 1-3 1-4 neighbors ...
  special bond factors lj:    0        1        1       
  special bond factors coul:  0        1        1       
     2 = max # of 1-2 neighbors
     2 = max # of special neighbors
  special bonds CPU = 0.000 seconds
create_bonds single/bond 8 37 38
Finding 1-2 1-3 1-4 neighbors ...
  special bond factors lj:    0        1        1       
  special bond factors coul:  0        1        1       
     2 = max # of 1-2 neighbors
     2 = max # of special neighbors
  special bonds CPU = 0.000 seconds
create_bonds single/bond 8 38 39
Finding 1-2 1-3 1-4 neighbors ...
  special bond factors lj:    0        1        1       
  special bond factors coul:  0        1        1       
     2 = max # of 1-2 neighbors
     2 = max # of special neighbors
  special bonds CPU = 0.000 seconds
create_bonds single/bond 8 39 40
Finding 1-2 1-3 1-4 neighbors ...
  special bond factors lj:    0        1        1       
  special bond factors coul:  0        1        1       
     2 = max # of 1-2 neighbors
     2 = max # of special neighbors
  special bonds CPU = 0.000 seconds
angle_coeff 8 0.0003857142857142857
include angles_8.txt
create_bonds single/angle 8 36 37 38
Finding 1-2 1-3 1-4 neighbors ...
  special bond factors lj:    0        1        1       
  special bond factors coul:  0        1        1       
     2 = max # of 1-2 neighbors
     2 = max # of special neighbors
  special bonds CPU = 0.000 seconds
create_bonds single/angle 8 37 38 39
Finding 1-2 1-3 1-4 neighbors ...
  special bond factors lj:    0        1        1       
  special bond factors coul:  0        1        1       
     2 = max # of 1-2 neighbors
     2 = max # of special neighbors
  special bonds CPU = 0.000 seconds
create_bonds single/angle 8 38 39 40
Finding 1-2 1-3 1-4 neighbors ...
  special bond factors lj:    0        1        1       
  special bond factors coul:  0        1        1       
     2 = max # of 1-2 neighbors
     2 = max # of special neighbors
  special bonds CPU = 0.000 seconds

include beam_9.txt
create_atoms 9 single -0.03111111111111111 0.0 0.016499999999999997
Created 1 atoms
  using lattice units in orthogonal box = (-0.05 -0.015 -0.05) to (0.05 0.015 0.05)
  create_atoms CPU = 0.000 seconds
create_atoms 9 single -0.03111111111111111 0.0 0.018249999999999995
Created 1 atoms
  using lattice units in orthogonal box = (-0.05 -0.015 -0.05) to (0.05 0.015 0.05)
  create_atoms CPU = 0.000 seconds
create_atoms 9 single -0.03111111111111111 0.0 0.019999999999999997
Created 1 atoms
  using lattice units in orthogonal box = (-0.05 -0.015 -0.05) to (0.05 0.015 0.05)
  create_atoms CPU = 0.000 seconds
create_atoms 9 single -0.03111111111111111 0.0 0.02175
Created 1 atoms
  using lattice units in orthogonal box = (-0.05 -0.015 -0.05) to (0.05 0.015 0.05)
  create_atoms CPU = 0.000 seconds
create_atoms 9 single -0.03111111111111111 0.0 0.023499999999999997
Created 1 atoms
  using lattice units in orthogonal box = (-0.05 -0.015 -0.05) to (0.05 0.015 0.05)
  create_atoms CPU = 0.000 seconds
set type 9 diameter 0.003
Setting atom values ...
  5 settings made for diameter
set type 9 density 0.01
Setting atom values ...
  5 settings made for density
bond_coeff 9 257.14285714285717 0.0017499999999999998
include bonds_9.txt
create_bonds single/bond 9 41 42
Finding 1-2 1-3 1-4 neighbors ...
  special bond factors lj:    0        1        1       
  special bond factors coul:  0        1        1       
     2 = max # of 1-2 neighbors
     2 = max # of special neighbors
  special bonds CPU = 0.000 seconds
create_bonds single/bond 9 42 43
Finding 1-2 1-3 1-4 neighbors ...
  special bond factors lj:    0        1        1       
  special bond factors coul:  0        1        1       
     2 = max # of 1-2 neighbors
     2 = max # of special neighbors
  special bonds CPU = 0.000 seconds
create_bonds single/bond 9 43 44
Finding 1-2 1-3 1-4 neighbors ...
  special bond factors lj:    0        1        1       
  special bond factors coul:  0        1        1       
     2 = max # of 1-2 neighbors
     2 = max # of special neighbors
  special bonds CPU = 0.000 seconds
create_bonds single/bond 9 44 45
Finding 1-2 1-3 1-4 neighbors ...
  special bond factors lj:    0        1        1       
  special bond factors coul:  0        1        1       
     2 = max # of 1-2 neighbors
     2 = max # of special neighbors
  special bonds CPU = 0.000 seconds
angle_coeff 9 0.0003857142857142857
include angles_9.txt
create_bonds single/angle 9 41 42 43
Finding 1-2 1-3 1-4 neighbors ...
  special bond factors lj:    0        1        1       
  special bond factors coul:  0        1        1       
     2 = max # of 1-2 neighbors
     2 = max # of special neighbors
  special bonds CPU = 0.000 seconds
create_bonds single/angle 9 42 43 44
Finding 1-2 1-3 1-4 neighbors ...
  special bond factors lj:    0        1        1       
  special bond factors coul:  0        1        1       
     2 = max # of 1-2 neighbors
     2 = max # of special neighbors
  special bonds CPU = 0.000 seconds
create_bonds single/angle 9 43 44 45
Finding 1-2 1-3 1-4 neighbors ...
  special bond factors lj:    0        1        1       
  special bond factors coul:  0        1        1       
     2 = max # of 1-2 neighbors
     2 = max # of special neighbors
  special bonds CPU = 0.000 seconds

include beam_10.txt
create_atoms 10 single -0.03111111111111111 0.0 0.0365
Created 1 atoms
  using lattice units in orthogonal box = (-0.05 -0.015 -0.05) to (0.05 0.015 0.05)
  create_atoms CPU = 0.000 seconds
create_atoms 10 single -0.03111111111111111 0.0 0.03825
Created 1 atoms
  using lattice units in orthogonal box = (-0.05 -0.015 -0.05) to (0.05 0.015 0.05)
  create_atoms CPU = 0.000 seconds
create_atoms 10 single -0.03111111111111111 0.0 0.04
Created 1 atoms
  using lattice units in orthogonal box = (-0.05 -0.015 -0.05) to (0.05 0.015 0.05)
  create_atoms CPU = 0.000 seconds
create_atoms 10 single -0.03111111111111111 0.0 0.04175
Created 1 atoms
  using lattice units in orthogonal box = (-0.05 -0.015 -0.05) to (0.05 0.015 0.05)
  create_atoms CPU = 0.000 seconds
create_atoms 10 single -0.03111111111111111 0.0 0.043500000000000004
Created 1 atoms
  using lattice units in orthogonal box = (-0.05 -0.015 -0.05) to (0.05 0.015 0.05)
  create_atoms CPU = 0.000 seconds
set type 10 diameter 0.003
Setting atom values ...
  5 settings made for diameter
set type 10 density 0.01
Setting atom values ...
  5 settings made for density
bond_coeff 10 257.14285714285694 0.0017500000000000016
include bonds_10.txt
create_bonds single/bond 10 46 47
Finding 1-2 1-3 1-4 neighbors ...
  special bond factors lj:    0        1        1       
  special bond factors coul:  0        1        1       
     2 = max # of 1-2 neighbors
     2 = max # of special neighbors
  special bonds CPU = 0.000 seconds
create_bonds single/bond 10 47 48
Finding 1-2 1-3 1-4 neighbors ...
  special bond factors lj:    0        1        1       
  special bond factors coul:  0        1        1       
     2 = max # of 1-2 neighbors
     2 = max # of special neighbors
  special bonds CPU = 0.000 seconds
create_bonds single/bond 10 48 49
Finding 1-2 1-3 1-4 neighbors ...
  special bond factors lj:    0        1        1       
  special bond factors coul:  0        1        1       
     2 = max # of 1-2 neighbors
     2 = max # of special neighbors
  special bonds CPU = 0.000 seconds
create_bonds single/bond 10 49 50
Finding 1-2 1-3 1-4 neighbors ...
  special bond factors lj:    0        1        1       
  special bond factors coul:  0        1        1       
     2 = max # of 1-2 neighbors
     2 = max # of special neighbors
  special bonds CPU = 0.000 seconds
angle_coeff 10 0.0003857142857142854
include angles_10.txt
create_bonds single/angle 10 46 47 48
Finding 1-2 1-3 1-4 neighbors ...
  special bond factors lj:    0        1        1       
  special bond factors coul:  0        1        1       
     2 = max # of 1-2 neighbors
     2 = max # of special neighbors
  special bonds CPU = 0.000 seconds
create_bonds single/angle 10 47 48 49
Finding 1-2 1-3 1-4 neighbors ...
  special bond factors lj:    0        1        1       
  special bond factors coul:  0        1        1       
     2 = max # of 1-2 neighbors
     2 = max # of special neighbors
  special bonds CPU = 0.000 seconds
create_bonds single/angle 10 48 49 50
Finding 1-2 1-3 1-4 neighbors ...
  special bond factors lj:    0        1        1       
  special bond factors coul:  0        1        1       
     2 = max # of 1-2 neighbors
     2 = max # of special neighbors
  special bonds CPU = 0.000 seconds

include beam_11.txt
create_atoms 11 single -0.022222222222222223 0.0 -0.043500000000000004
Created 1 atoms
  using lattice units in orthogonal box = (-0.05 -0.015 -0.05) to (0.05 0.015 0.05)
  create_atoms CPU = 0.000 seconds
create_atoms 11 single -0.022222222222222223 0.0 -0.04175
Created 1 atoms
  using lattice units in orthogonal box = (-0.05 -0.015 -0.05) to (0.05 0.015 0.05)
  create_atoms CPU = 0.000 seconds
create_atoms 11 single -0.022222222222222223 0.0 -0.04
Created 1 atoms
  using lattice units in orthogonal box = (-0.05 -0.015 -0.05) to (0.05 0.015 0.05)
  create_atoms CPU = 0.000 seconds
create_atoms 11 single -0.022222222222222223 0.0 -0.03825
Created 1 atoms
  using lattice units in orthogonal box = (-0.05 -0.015 -0.05) to (0.05 0.015 0.05)
  create_atoms CPU = 0.000 seconds
create_atoms 11 single -0.022222222222222223 0.0 -0.0365
Created 1 atoms
  using lattice units in orthogonal box = (-0.05 -0.015 -0.05) to (0.05 0.015 0.05)
  create_atoms CPU = 0.000 seconds
set type 11 diameter 0.003
Setting atom values ...
  5 settings made for diameter
set type 11 density 0.01
Setting atom values ...
  5 settings made for density
bond_coeff 11 257.14285714285694 0.0017500000000000016
include bonds_11.txt
create_bonds single/bond 11 51 52
Finding 1-2 1-3 1-4 neighbors ...
  special bond factors lj:    0        1        1       
  special bond factors coul:  0        1        1       
     2 = max # of 1-2 neighbors
     2 = max # of special neighbors
  special bonds CPU = 0.000 seconds
create_bonds single/bond 11 52 53
Finding 1-2 1-3 1-4 neighbors ...
  special bond factors lj:    0        1        1       
  special bond factors coul:  0        1        1       
     2 = max # of 1-2 neighbors
     2 = max # of special neighbors
  special bonds CPU = 0.000 seconds
create_bonds single/bond 11 53 54
Finding 1-2 1-3 1-4 neighbors ...
  special bond factors lj:    0        1        1       
  special bond factors coul:  0        1        1       
     2 = max # of 1-2 neighbors
     2 = max # of special neighbors
  special bonds CPU = 0.000 seconds
create_bonds single/bond 11 54 55
Finding 1-2 1-3 1-4 neighbors ...
  special bond factors lj:    0        1        1       
  special bond factors coul:  0        1        1       
     2 = max # of 1-2 neighbors
     2 = max # of special neighbors
  special bonds CPU = 0.000 seconds
angle_coeff 11 0.0003857142857142854
include angles_11.txt
create_bonds single/angle 11 51 52 53
Finding 1-2 1-3 1-4 neighbors ...
  special bond factors lj:    0        1        1       
  special bond factors coul:  0        1        1       
     2 = max # of 1-2 neighbors
     2 = max # of special neighbors
  special bonds CPU = 0.000 seconds
create_bonds single/angle 11 52 53 54
Finding 1-2 1-3 1-4 neighbors ...
  special bond factors lj:    0        1        1       
  special bond factors coul:  0        1        1       
     2 = max # of 1-2 neighbors
     2 = max # of special neighbors
  special bonds CPU = 0.000 seconds
create_bonds single/angle 11 53 54 55
Finding 1-2 1-3 1-4 neighbors ...
  special bond factors lj:    0        1        1       
  special bond factors coul:  0        1        1       
     2 = max # of 1-2 neighbors
     2 = max # of special neighbors
  special bonds CPU = 0.000 seconds

include beam_12.txt
create_atoms 12 single -0.022222222222222223 0.0 -0.0235
Created 1 atoms
  using lattice units in orthogonal box = (-0.05 -0.015 -0.05) to (0.05 0.015 0.05)
  create_atoms CPU = 0.000 seconds
create_atoms 12 single -0.022222222222222223 0.0 -0.02175
Created 1 atoms
  using lattice units in orthogonal box = (-0.05 -0.015 -0.05) to (0.05 0.015 0.05)
  create_atoms CPU = 0.000 seconds
create_atoms 12 single -0.022222222222222223 0.0 -0.02
Created 1 atoms
  using lattice units in orthogonal box = (-0.05 -0.015 -0.05) to (0.05 0.015 0.05)
  create_atoms CPU = 0.000 seconds
create_atoms 12 single -0.022222222222222223 0.0 -0.018250000000000002
Created 1 atoms
  using lattice units in orthogonal box = (-0.05 -0.015 -0.05) to (0.05 0.015 0.05)
  create_atoms CPU = 0.000 seconds
create_atoms 12 single -0.022222222222222223 0.0 -0.0165
Created 1 atoms
  using lattice units in orthogonal box = (-0.05 -0.015 -0.05) to (0.05 0.015 0.05)
  create_atoms CPU = 0.000 seconds
set type 12 diameter 0.003
Setting atom values ...
  5 settings made for diameter
set type 12 density 0.01
Setting atom values ...
  5 settings made for density
bond_coeff 12 257.14285714285717 0.0017499999999999998
include bonds_12.txt
create_bonds single/bond 12 56 57
Finding 1-2 1-3 1-4 neighbors ...
  special bond factors lj:    0        1        1       
  special bond factors coul:  0        1        1       
     2 = max # of 1-2 neighbors
     2 = max # of special neighbors
  special bonds CPU = 0.000 seconds
create_bonds single/bond 12 57 58
Finding 1-2 1-3 1-4 neighbors ...
  special bond factors lj:    0        1        1       
  special bond factors coul:  0        1        1       
     2 = max # of 1-2 neighbors
     2 = max # of special neighbors
  special bonds CPU = 0.000 seconds
create_bonds single/bond 12 58 59
Finding 1-2 1-3 1-4 neighbors ...
  special bond factors lj:    0        1        1       
  special bond factors coul:  0        1        1       
     2 = max # of 1-2 neighbors
     2 = max # of special neighbors
  special bonds CPU = 0.000 seconds
create_bonds single/bond 12 59 60
Finding 1-2 1-3 1-4 neighbors ...
  special bond factors lj:    0        1        1       
  special bond factors coul:  0        1        1       
     2 = max # of 1-2 neighbors
     2 = max # of special neighbors
  special bonds CPU = 0.000 seconds
angle_coeff 12 0.0003857142857142857
include angles_12.txt
create_bonds single/angle 12 56 57 58
Finding 1-2 1-3 1-4 neighbors ...
  special bond factors lj:    0        1        1       
  special bond factors coul:  0        1        1       
     2 = max # of 1-2 neighbors
     2 = max # of special neighbors
  special bonds CPU = 0.000 seconds
create_bonds single/angle 12 57 58 59
Finding 1-2 1-3 1-4 neighbors ...
  special bond factors lj:    0        1        1       
  special bond factors coul:  0        1        1       
     2 = max # of 1-2 neighbors
     2 = max # of special neighbors
  special bonds CPU = 0.000 seconds
create_bonds single/angle 12 58 59 60
Finding 1-2 1-3 1-4 neighbors ...
  special bond factors lj:    0        1        1       
  special bond factors coul:  0        1        1       
     2 = max # of 1-2 neighbors
     2 = max # of special neighbors
  special bonds CPU = 0.000 seconds

include beam_13.txt
create_atoms 13 single -0.022222222222222223 0.0 -0.0035
Created 1 atoms
  using lattice units in orthogonal box = (-0.05 -0.015 -0.05) to (0.05 0.015 0.05)
  create_atoms CPU = 0.000 seconds
create_atoms 13 single -0.022222222222222223 0.0 -0.00175
Created 1 atoms
  using lattice units in orthogonal box = (-0.05 -0.015 -0.05) to (0.05 0.015 0.05)
  create_atoms CPU = 0.000 seconds
create_atoms 13 single -0.022222222222222223 0.0 0.0
Created 1 atoms
  using lattice units in orthogonal box = (-0.05 -0.015 -0.05) to (0.05 0.015 0.05)
  create_atoms CPU = 0.000 seconds
create_atoms 13 single -0.022222222222222223 0.0 0.0017500000000000003
Created 1 atoms
  using lattice units in orthogonal box = (-0.05 -0.015 -0.05) to (0.05 0.015 0.05)
  create_atoms CPU = 0.000 seconds
create_atoms 13 single -0.022222222222222223 0.0 0.0035
Created 1 atoms
  using lattice units in orthogonal box = (-0.05 -0.015 -0.05) to (0.05 0.015 0.05)
  create_atoms CPU = 0.000 seconds
set type 13 diameter 0.003
Setting atom values ...
  5 settings made for diameter
set type 13 density 0.01
Setting atom values ...
  5 settings made for density
bond_coeff 13 257.1428571428571 0.00175
include bonds_13.txt
create_bonds single/bond 13 61 62
Finding 1-2 1-3 1-4 neighbors ...
  special bond factors lj:    0        1        1       
  special bond factors coul:  0        1        1       
     2 = max # of 1-2 neighbors
     2 = max # of special neighbors
  special bonds CPU = 0.000 seconds
create_bonds single/bond 13 62 63
Finding 1-2 1-3 1-4 neighbors ...
  special bond factors lj:    0        1        1       
  special bond factors coul:  0        1        1       
     2 = max # of 1-2 neighbors
     2 = max # of special neighbors
  special bonds CPU = 0.000 seconds
create_bonds single/bond 13 63 64
Finding 1-2 1-3 1-4 neighbors ...
  special bond factors lj:    0        1        1       
  special bond factors coul:  0        1        1       
     2 = max # of 1-2 neighbors
     2 = max # of special neighbors
  special bonds CPU = 0.000 seconds
create_bonds single/bond 13 64 65
Finding 1-2 1-3 1-4 neighbors ...
  special bond factors lj:    0        1        1       
  special bond factors coul:  0        1        1       
     2 = max # of 1-2 neighbors
     2 = max # of special neighbors
  special bonds CPU = 0.000 seconds
angle_coeff 13 0.0003857142857142857
include angles_13.txt
create_bonds single/angle 13 61 62 63
Finding 1-2 1-3 1-4 neighbors ...
  special bond factors lj:    0        1        1       
  special bond factors coul:  0        1        1       
     2 = max # of 1-2 neighbors
     2 = max # of special neighbors
  special bonds CPU = 0.000 seconds
create_bonds single/angle 13 62 63 64
Finding 1-2 1-3 1-4 neighbors ...
  special bond factors lj:    0        1        1       
  special bond factors coul:  0        1        1       
     2 = max # of 1-2 neighbors
     2 = max # of special neighbors
  special bonds CPU = 0.000 seconds
create_bonds single/angle 13 63 64 65
Finding 1-2 1-3 1-4 neighbors ...
  special bond factors lj:    0        1        1       
  special bond factors coul:  0        1        1       
     2 = max # of 1-2 neighbors
     2 = max # of special neighbors
  special bonds CPU = 0.000 seconds

include beam_14.txt
create_atoms 14 single -0.022222222222222223 0.0 0.016499999999999997
Created 1 atoms
  using lattice units in orthogonal box = (-0.05 -0.015 -0.05) to (0.05 0.015 0.05)
  create_atoms CPU = 0.000 seconds
create_atoms 14 single -0.022222222222222223 0.0 0.018249999999999995
Created 1 atoms
  using lattice units in orthogonal box = (-0.05 -0.015 -0.05) to (0.05 0.015 0.05)
  create_atoms CPU = 0.000 seconds
create_atoms 14 single -0.022222222222222223 0.0 0.019999999999999997
Created 1 atoms
  using lattice units in orthogonal box = (-0.05 -0.015 -0.05) to (0.05 0.015 0.05)
  create_atoms CPU = 0.000 seconds
create_atoms 14 single -0.022222222222222223 0.0 0.02175
Created 1 atoms
  using lattice units in orthogonal box = (-0.05 -0.015 -0.05) to (0.05 0.015 0.05)
  create_atoms CPU = 0.000 seconds
create_atoms 14 single -0.022222222222222223 0.0 0.023499999999999997
Created 1 atoms
  using lattice units in orthogonal box = (-0.05 -0.015 -0.05) to (0.05 0.015 0.05)
  create_atoms CPU = 0.000 seconds
set type 14 diameter 0.003
Setting atom values ...
  5 settings made for diameter
set type 14 density 0.01
Setting atom values ...
  5 settings made for density
bond_coeff 14 257.14285714285717 0.0017499999999999998
include bonds_14.txt
create_bonds single/bond 14 66 67
Finding 1-2 1-3 1-4 neighbors ...
  special bond factors lj:    0        1        1       
  special bond factors coul:  0        1        1       
     2 = max # of 1-2 neighbors
     2 = max # of special neighbors
  special bonds CPU = 0.000 seconds
create_bonds single/bond 14 67 68
Finding 1-2 1-3 1-4 neighbors ...
  special bond factors lj:    0        1        1       
  special bond factors coul:  0        1        1       
     2 = max # of 1-2 neighbors
     2 = max # of special neighbors
  special bonds CPU = 0.000 seconds
create_bonds single/bond 14 68 69
Finding 1-2 1-3 1-4 neighbors ...
  special bond factors lj:    0        1        1       
  special bond factors coul:  0        1        1       
     2 = max # of 1-2 neighbors
     2 = max # of special neighbors
  special bonds CPU = 0.000 seconds
create_bonds single/bond 14 69 70
Finding 1-2 1-3 1-4 neighbors ...
  special bond factors lj:    0        1        1       
  special bond factors coul:  0        1        1       
     2 = max # of 1-2 neighbors
     2 = max # of special neighbors
  special bonds CPU = 0.000 seconds
angle_coeff 14 0.0003857142857142857
include angles_14.txt
create_bonds single/angle 14 66 67 68
Finding 1-2 1-3 1-4 neighbors ...
  special bond factors lj:    0        1        1       
  special bond factors coul:  0        1        1       
     2 = max # of 1-2 neighbors
     2 = max # of special neighbors
  special bonds CPU = 0.000 seconds
create_bonds single/angle 14 67 68 69
Finding 1-2 1-3 1-4 neighbors ...
  special bond factors lj:    0        1        1       
  special bond factors coul:  0        1        1       
     2 = max # of 1-2 neighbors
     2 = max # of special neighbors
  special bonds CPU = 0.000 seconds
create_bonds single/angle 14 68 69 70
Finding 1-2 1-3 1-4 neighbors ...
  special bond factors lj:    0        1        1       
  special bond factors coul:  0        1        1       
     2 = max # of 1-2 neighbors
     2 = max # of special neighbors
  special bonds CPU = 0.000 seconds

include beam_15.txt
create_atoms 15 single -0.022222222222222223 0.0 0.0365
Created 1 atoms
  using lattice units in orthogonal box = (-0.05 -0.015 -0.05) to (0.05 0.015 0.05)
  create_atoms CPU = 0.000 seconds
create_atoms 15 single -0.022222222222222223 0.0 0.03825
Created 1 atoms
  using lattice units in orthogonal box = (-0.05 -0.015 -0.05) to (0.05 0.015 0.05)
  create_atoms CPU = 0.000 seconds
create_atoms 15 single -0.022222222222222223 0.0 0.04
Created 1 atoms
  using lattice units in orthogonal box = (-0.05 -0.015 -0.05) to (0.05 0.015 0.05)
  create_atoms CPU = 0.000 seconds
create_atoms 15 single -0.022222222222222223 0.0 0.04175
Created 1 atoms
  using lattice units in orthogonal box = (-0.05 -0.015 -0.05) to (0.05 0.015 0.05)
  create_atoms CPU = 0.000 seconds
create_atoms 15 single -0.022222222222222223 0.0 0.043500000000000004
Created 1 atoms
  using lattice units in orthogonal box = (-0.05 -0.015 -0.05) to (0.05 0.015 0.05)
  create_atoms CPU = 0.000 seconds
set type 15 diameter 0.003
Setting atom values ...
  5 settings made for diameter
set type 15 density 0.01
Setting atom values ...
  5 settings made for density
bond_coeff 15 257.14285714285694 0.0017500000000000016
include bonds_15.txt
create_bonds single/bond 15 71 72
Finding 1-2 1-3 1-4 neighbors ...
  special bond factors lj:    0        1        1       
  special bond factors coul:  0        1        1       
     2 = max # of 1-2 neighbors
     2 = max # of special neighbors
  special bonds CPU = 0.000 seconds
create_bonds single/bond 15 72 73
Finding 1-2 1-3 1-4 neighbors ...
  special bond factors lj:    0        1        1       
  special bond factors coul:  0        1        1       
     2 = max # of 1-2 neighbors
     2 = max # of special neighbors
  special bonds CPU = 0.000 seconds
create_bonds single/bond 15 73 74
Finding 1-2 1-3 1-4 neighbors ...
  special bond factors lj:    0        1        1       
  special bond factors coul:  0        1        1       
     2 = max # of 1-2 neighbors
     2 = max # of special neighbors
  special bonds CPU = 0.000 seconds
create_bonds single/bond 15 74 75
Finding 1-2 1-3 1-4 neighbors ...
  special bond factors lj:    0        1        1       
  special bond factors coul:  0        1        1       
     2 = max # of 1-2 neighbors
     2 = max # of special neighbors
  special bonds CPU = 0.000 seconds
angle_coeff 15 0.0003857142857142854
include angles_15.txt
create_bonds single/angle 15 71 72 73
Finding 1-2 1-3 1-4 neighbors ...
  special bond factors lj:    0        1        1       
  special bond factors coul:  0        1        1       
     2 = max # of 1-2 neighbors
     2 = max # of special neighbors
  special bonds CPU = 0.000 seconds
create_bonds single/angle 15 72 73 74
Finding 1-2 1-3 1-4 neighbors ...
  special bond factors lj:    0        1        1       
  special bond factors coul:  0        1        1       
     2 = max # of 1-2 neighbors
     2 = max # of special neighbors
  special bonds CPU = 0.000 seconds
create_bonds single/angle 15 73 74 75
Finding 1-2 1-3 1-4 neighbors ...
  special bond factors lj:    0        1        1       
  special bond factors coul:  0        1        1       
     2 = max # of 1-2 neighbors
     2 = max # of special neighbors
  special bonds CPU = 0.000 seconds

include beam_16.txt
create_atoms 16 single -0.013333333333333336 0.0 -0.043500000000000004
Created 1 atoms
  using lattice units in orthogonal box = (-0.05 -0.015 -0.05) to (0.05 0.015 0.05)
  create_atoms CPU = 0.000 seconds
create_atoms 16 single -0.013333333333333336 0.0 -0.04175
Created 1 atoms
  using lattice units in orthogonal box = (-0.05 -0.015 -0.05) to (0.05 0.015 0.05)
  create_atoms CPU = 0.000 seconds
create_atoms 16 single -0.013333333333333336 0.0 -0.04
Created 1 atoms
  using lattice units in orthogonal box = (-0.05 -0.015 -0.05) to (0.05 0.015 0.05)
  create_atoms CPU = 0.000 seconds
create_atoms 16 single -0.013333333333333336 0.0 -0.03825
Created 1 atoms
  using lattice units in orthogonal box = (-0.05 -0.015 -0.05) to (0.05 0.015 0.05)
  create_atoms CPU = 0.000 seconds
create_atoms 16 single -0.013333333333333336 0.0 -0.0365
Created 1 atoms
  using lattice units in orthogonal box = (-0.05 -0.015 -0.05) to (0.05 0.015 0.05)
  create_atoms CPU = 0.000 seconds
set type 16 diameter 0.003
Setting atom values ...
  5 settings made for diameter
set type 16 density 0.01
Setting atom values ...
  5 settings made for density
bond_coeff 16 257.14285714285694 0.0017500000000000016
include bonds_16.txt
create_bonds single/bond 16 76 77
Finding 1-2 1-3 1-4 neighbors ...
  special bond factors lj:    0        1        1       
  special bond factors coul:  0        1        1       
     2 = max # of 1-2 neighbors
     2 = max # of special neighbors
  special bonds CPU = 0.000 seconds
create_bonds single/bond 16 77 78
Finding 1-2 1-3 1-4 neighbors ...
  special bond factors lj:    0        1        1       
  special bond factors coul:  0        1        1       
     2 = max # of 1-2 neighbors
     2 = max # of special neighbors
  special bonds CPU = 0.000 seconds
create_bonds single/bond 16 78 79
Finding 1-2 1-3 1-4 neighbors ...
  special bond factors lj:    0        1        1       
  special bond factors coul:  0        1        1       
     2 = max # of 1-2 neighbors
     2 = max # of special neighbors
  special bonds CPU = 0.000 seconds
create_bonds single/bond 16 79 80
Finding 1-2 1-3 1-4 neighbors ...
  special bond factors lj:    0        1        1       
  special bond factors coul:  0        1        1       
     2 = max # of 1-2 neighbors
     2 = max # of special neighbors
  special bonds CPU = 0.000 seconds
angle_coeff 16 0.0003857142857142854
include angles_16.txt
create_bonds single/angle 16 76 77 78
Finding 1-2 1-3 1-4 neighbors ...
  special bond factors lj:    0        1        1       
  special bond factors coul:  0        1        1       
     2 = max # of 1-2 neighbors
     2 = max # of special neighbors
  special bonds CPU = 0.000 seconds
create_bonds single/angle 16 77 78 79
Finding 1-2 1-3 1-4 neighbors ...
  special bond factors lj:    0        1        1       
  special bond factors coul:  0        1        1       
     2 = max # of 1-2 neighbors
     2 = max # of special neighbors
  special bonds CPU = 0.000 seconds
create_bonds single/angle 16 78 79 80
Finding 1-2 1-3 1-4 neighbors ...
  special bond factors lj:    0        1        1       
  special bond factors coul:  0        1        1       
     2 = max # of 1-2 neighbors
     2 = max # of special neighbors
  special bonds CPU = 0.000 seconds

include beam_17.txt
create_atoms 17 single -0.013333333333333336 0.0 -0.0235
Created 1 atoms
  using lattice units in orthogonal box = (-0.05 -0.015 -0.05) to (0.05 0.015 0.05)
  create_atoms CPU = 0.000 seconds
create_atoms 17 single -0.013333333333333336 0.0 -0.02175
Created 1 atoms
  using lattice units in orthogonal box = (-0.05 -0.015 -0.05) to (0.05 0.015 0.05)
  create_atoms CPU = 0.000 seconds
create_atoms 17 single -0.013333333333333336 0.0 -0.02
Created 1 atoms
  using lattice units in orthogonal box = (-0.05 -0.015 -0.05) to (0.05 0.015 0.05)
  create_atoms CPU = 0.000 seconds
create_atoms 17 single -0.013333333333333336 0.0 -0.018250000000000002
Created 1 atoms
  using lattice units in orthogonal box = (-0.05 -0.015 -0.05) to (0.05 0.015 0.05)
  create_atoms CPU = 0.000 seconds
create_atoms 17 single -0.013333333333333336 0.0 -0.0165
Created 1 atoms
  using lattice units in orthogonal box = (-0.05 -0.015 -0.05) to (0.05 0.015 0.05)
  create_atoms CPU = 0.000 seconds
set type 17 diameter 0.003
Setting atom values ...
  5 settings made for diameter
set type 17 density 0.01
Setting atom values ...
  5 settings made for density
bond_coeff 17 257.14285714285717 0.0017499999999999998
include bonds_17.txt
create_bonds single/bond 17 81 82
Finding 1-2 1-3 1-4 neighbors ...
  special bond factors lj:    0        1        1       
  special bond factors coul:  0        1        1       
     2 = max # of 1-2 neighbors
     2 = max # of special neighbors
  special bonds CPU = 0.000 seconds
create_bonds single/bond 17 82 83
Finding 1-2 1-3 1-4 neighbors ...
  special bond factors lj:    0        1        1       
  special bond factors coul:  0        1        1       
     2 = max # of 1-2 neighbors
     2 = max # of special neighbors
  special bonds CPU = 0.000 seconds
create_bonds single/bond 17 83 84
Finding 1-2 1-3 1-4 neighbors ...
  special bond factors lj:    0        1        1       
  special bond factors coul:  0        1        1       
     2 = max # of 1-2 neighbors
     2 = max # of special neighbors
  special bonds CPU = 0.000 seconds
create_bonds single/bond 17 84 85
Finding 1-2 1-3 1-4 neighbors ...
  special bond factors lj:    0        1        1       
  special bond factors coul:  0        1        1       
     2 = max # of 1-2 neighbors
     2 = max # of special neighbors
  special bonds CPU = 0.000 seconds
angle_coeff 17 0.0003857142857142857
include angles_17.txt
create_bonds single/angle 17 81 82 83
Finding 1-2 1-3 1-4 neighbors ...
  special bond factors lj:    0        1        1       
  special bond factors coul:  0        1        1       
     2 = max # of 1-2 neighbors
     2 = max # of special neighbors
  special bonds CPU = 0.000 seconds
create_bonds single/angle 17 82 83 84
Finding 1-2 1-3 1-4 neighbors ...
  special bond factors lj:    0        1        1       
  special bond factors coul:  0        1        1       
     2 = max # of 1-2 neighbors
     2 = max # of special neighbors
  special bonds CPU = 0.000 seconds
create_bonds single/angle 17 83 84 85
Finding 1-2 1-3 1-4 neighbors ...
  special bond factors lj:    0        1        1       
  special bond factors coul:  0        1        1       
     2 = max # of 1-2 neighbors
     2 = max # of special neighbors
  special bonds CPU = 0.000 seconds

include beam_18.txt
create_atoms 18 single -0.013333333333333336 0.0 -0.0035
Created 1 atoms
  using lattice units in orthogonal box = (-0.05 -0.015 -0.05) to (0.05 0.015 0.05)
  create_atoms CPU = 0.000 seconds
create_atoms 18 single -0.013333333333333336 0.0 -0.00175
Created 1 atoms
  using lattice units in orthogonal box = (-0.05 -0.015 -0.05) to (0.05 0.015 0.05)
  create_atoms CPU = 0.000 seconds
create_atoms 18 single -0.013333333333333336 0.0 0.0
Created 1 atoms
  using lattice units in orthogonal box = (-0.05 -0.015 -0.05) to (0.05 0.015 0.05)
  create_atoms CPU = 0.000 seconds
create_atoms 18 single -0.013333333333333336 0.0 0.0017500000000000003
Created 1 atoms
  using lattice units in orthogonal box = (-0.05 -0.015 -0.05) to (0.05 0.015 0.05)
  create_atoms CPU = 0.000 seconds
create_atoms 18 single -0.013333333333333336 0.0 0.0035
Created 1 atoms
  using lattice units in orthogonal box = (-0.05 -0.015 -0.05) to (0.05 0.015 0.05)
  create_atoms CPU = 0.000 seconds
set type 18 diameter 0.003
Setting atom values ...
  5 settings made for diameter
set type 18 density 0.01
Setting atom values ...
  5 settings made for density
bond_coeff 18 257.1428571428571 0.00175
include bonds_18.txt
create_bonds single/bond 18 86 87
Finding 1-2 1-3 1-4 neighbors ...
  special bond factors lj:    0        1        1       
  special bond factors coul:  0        1        1       
     2 = max # of 1-2 neighbors
     2 = max # of special neighbors
  special bonds CPU = 0.000 seconds
create_bonds single/bond 18 87 88
Finding 1-2 1-3 1-4 neighbors ...
  special bond factors lj:    0        1        1       
  special bond factors coul:  0        1        1       
     2 = max # of 1-2 neighbors
     2 = max # of special neighbors
  special bonds CPU = 0.000 seconds
create_bonds single/bond 18 88 89
Finding 1-2 1-3 1-4 neighbors ...
  special bond factors lj:    0        1        1       
  special bond factors coul:  0        1        1       
     2 = max # of 1-2 neighbors
     2 = max # of special neighbors
  special bonds CPU = 0.000 seconds
create_bonds single/bond 18 89 90
Finding 1-2 1-3 1-4 neighbors ...
  special bond factors lj:    0        1        1       
  special bond factors coul:  0        1        1       
     2 = max # of 1-2 neighbors
     2 = max # of special neighbors
  special bonds CPU = 0.000 seconds
angle_coeff 18 0.0003857142857142857
include angles_18.txt
create_bonds single/angle 18 86 87 88
Finding 1-2 1-3 1-4 neighbors ...
  special bond factors lj:    0        1        1       
  special bond factors coul:  0        1        1       
     2 = max # of 1-2 neighbors
     2 = max # of special neighbors
  special bonds CPU = 0.000 seconds
create_bonds single/angle 18 87 88 89
Finding 1-2 1-3 1-4 neighbors ...
  special bond factors lj:    0        1        1       
  special bond factors coul:  0        1        1       
     2 = max # of 1-2 neighbors
     2 = max # of special neighbors
  special bonds CPU = 0.000 seconds
create_bonds single/angle 18 88 89 90
Finding 1-2 1-3 1-4 neighbors ...
  special bond factors lj:    0        1        1       
  special bond factors coul:  0        1        1       
     2 = max # of 1-2 neighbors
     2 = max # of special neighbors
  special bonds CPU = 0.000 seconds

include beam_19.txt
create_atoms 19 single -0.013333333333333336 0.0 0.016499999999999997
Created 1 atoms
  using lattice units in orthogonal box = (-0.05 -0.015 -0.05) to (0.05 0.015 0.05)
  create_atoms CPU = 0.000 seconds
create_atoms 19 single -0.013333333333333336 0.0 0.018249999999999995
Created 1 atoms
  using lattice units in orthogonal box = (-0.05 -0.015 -0.05) to (0.05 0.015 0.05)
  create_atoms CPU = 0.000 seconds
create_atoms 19 single -0.013333333333333336 0.0 0.019999999999999997
Created 1 atoms
  using lattice units in orthogonal box = (-0.05 -0.015 -0.05) to (0.05 0.015 0.05)
  create_atoms CPU = 0.000 seconds
create_atoms 19 single -0.013333333333333336 0.0 0.02175
Created 1 atoms
  using lattice units in orthogonal box = (-0.05 -0.015 -0.05) to (0.05 0.015 0.05)
  create_atoms CPU = 0.000 seconds
create_atoms 19 single -0.013333333333333336 0.0 0.023499999999999997
Created 1 atoms
  using lattice units in orthogonal box = (-0.05 -0.015 -0.05) to (0.05 0.015 0.05)
  create_atoms CPU = 0.000 seconds
set type 19 diameter 0.003
Setting atom values ...
  5 settings made for diameter
set type 19 density 0.01
Setting atom values ...
  5 settings made for density
bond_coeff 19 257.14285714285717 0.0017499999999999998
include bonds_19.txt
create_bonds single/bond 19 91 92
Finding 1-2 1-3 1-4 neighbors ...
  special bond factors lj:    0        1        1       
  special bond factors coul:  0        1        1       
     2 = max # of 1-2 neighbors
     2 = max # of special neighbors
  special bonds CPU = 0.000 seconds
create_bonds single/bond 19 92 93
Finding 1-2 1-3 1-4 neighbors ...
  special bond factors lj:    0        1        1       
  special bond factors coul:  0        1        1       
     2 = max # of 1-2 neighbors
     2 = max # of special neighbors
  special bonds CPU = 0.000 seconds
create_bonds single/bond 19 93 94
Finding 1-2 1-3 1-4 neighbors ...
  special bond factors lj:    0        1        1       
  special bond factors coul:  0        1        1       
     2 = max # of 1-2 neighbors
     2 = max # of special neighbors
  special bonds CPU = 0.000 seconds
create_bonds single/bond 19 94 95
Finding 1-2 1-3 1-4 neighbors ...
  special bond factors lj:    0        1        1       
  special bond factors coul:  0        1        1       
     2 = max # of 1-2 neighbors
     2 = max # of special neighbors
  special bonds CPU = 0.000 seconds
angle_coeff 19 0.0003857142857142857
include angles_19.txt
create_bonds single/angle 19 91 92 93
Finding 1-2 1-3 1-4 neighbors ...
  special bond factors lj:    0        1        1       
  special bond factors coul:  0        1        1       
     2 = max # of 1-2 neighbors
     2 = max # of special neighbors
  special bonds CPU = 0.000 seconds
create_bonds single/angle 19 92 93 94
Finding 1-2 1-3 1-4 neighbors ...
  special bond factors lj:    0        1        1       
  special bond factors coul:  0        1        1       
     2 = max # of 1-2 neighbors
     2 = max # of special neighbors
  special bonds CPU = 0.000 seconds
create_bonds single/angle 19 93 94 95
Finding 1-2 1-3 1-4 neighbors ...
  special bond factors lj:    0        1        1       
  special bond factors coul:  0        1        1       
     2 = max # of 1-2 neighbors
     2 = max # of special neighbors
  special bonds CPU = 0.000 seconds

include beam_20.txt
create_atoms 20 single -0.013333333333333336 0.0 0.0365
Created 1 atoms
  using lattice units in orthogonal box = (-0.05 -0.015 -0.05) to (0.05 0.015 0.05)
  create_atoms CPU = 0.000 seconds
create_atoms 20 single -0.013333333333333336 0.0 0.03825
Created 1 atoms
  using lattice units in orthogonal box = (-0.05 -0.015 -0.05) to (0.05 0.015 0.05)
  create_atoms CPU = 0.000 seconds
create_atoms 20 single -0.013333333333333336 0.0 0.04
Created 1 atoms
  using lattice units in orthogonal box = (-0.05 -0.015 -0.05) to (0.05 0.015 0.05)
  create_atoms CPU = 0.000 seconds
create_atoms 20 single -0.013333333333333336 0.0 0.04175
Created 1 atoms
  using lattice units in orthogonal box = (-0.05 -0.015 -0.05) to (0.05 0.015 0.05)
  create_atoms CPU = 0.000 seconds
create_atoms 20 single -0.013333333333333336 0.0 0.043500000000000004
Created 1 atoms
  using lattice units in orthogonal box = (-0.05 -0.015 -0.05) to (0.05 0.015 0.05)
  create_atoms CPU = 0.000 seconds
set type 20 diameter 0.003
Setting atom values ...
  5 settings made for diameter
set type 20 density 0.01
Setting atom values ...
  5 settings made for density
bond_coeff 20 257.14285714285694 0.0017500000000000016
include bonds_20.txt
create_bonds single/bond 20 96 97
Finding 1-2 1-3 1-4 neighbors ...
  special bond factors lj:    0        1        1       
  special bond factors coul:  0        1        1       
     2 = max # of 1-2 neighbors
     2 = max # of special neighbors
  special bonds CPU = 0.000 seconds
create_bonds single/bond 20 97 98
Finding 1-2 1-3 1-4 neighbors ...
  special bond factors lj:    0        1        1       
  special bond factors coul:  0        1        1       
     2 = max # of 1-2 neighbors
     2 = max # of special neighbors
  special bonds CPU = 0.000 seconds
create_bonds single/bond 20 98 99
Finding 1-2 1-3 1-4 neighbors ...
  special bond factors lj:    0        1        1       
  special bond factors coul:  0        1        1       
     2 = max # of 1-2 neighbors
     2 = max # of special neighbors
  special bonds CPU = 0.000 seconds
create_bonds single/bond 20 99 100
Finding 1-2 1-3 1-4 neighbors ...
  special bond factors lj:    0        1        1       
  special bond factors coul:  0        1        1       
     2 = max # of 1-2 neighbors
     2 = max # of special neighbors
  special bonds CPU = 0.000 seconds
angle_coeff 20 0.0003857142857142854
include angles_20.txt
create_bonds single/angle 20 96 97 98
Finding 1-2 1-3 1-4 neighbors ...
  special bond factors lj:    0        1        1       
  special bond factors coul:  0        1        1       
     2 = max # of 1-2 neighbors
     2 = max # of special neighbors
  special bonds CPU = 0.000 seconds
create_bonds single/angle 20 97 98 99
Finding 1-2 1-3 1-4 neighbors ...
  special bond factors lj:    0        1        1       
  special bond factors coul:  0        1        1       
     2 = max # of 1-2 neighbors
     2 = max # of special neighbors
  special bonds CPU = 0.000 seconds
create_bonds single/angle 20 98 99 100
Finding 1-2 1-3 1-4 neighbors ...
  special bond factors lj:    0        1        1       
  special bond factors coul:  0        1        1       
     2 = max # of 1-2 neighbors
     2 = max # of special neighbors
  special bonds CPU = 0.000 seconds

include beam_21.txt
create_atoms 21 single -0.004444444444444445 0.0 -0.043500000000000004
Created 1 atoms
  using lattice units in orthogonal box = (-0.05 -0.015 -0.05) to (0.05 0.015 0.05)
  create_atoms CPU = 0.000 seconds
create_atoms 21 single -0.004444444444444445 0.0 -0.04175
Created 1 atoms
  using lattice units in orthogonal box = (-0.05 -0.015 -0.05) to (0.05 0.015 0.05)
  create_atoms CPU = 0.000 seconds
create_atoms 21 single -0.004444444444444445 0.0 -0.04
Created 1 atoms
  using lattice units in orthogonal box = (-0.05 -0.015 -0.05) to (0.05 0.015 0.05)
  create_atoms CPU = 0.000 seconds
create_atoms 21 single -0.004444444444444445 0.0 -0.03825
Created 1 atoms
  using lattice units in orthogonal box = (-0.05 -0.015 -0.05) to (0.05 0.015 0.05)
  create_atoms CPU = 0.000 seconds
create_atoms 21 single -0.004444444444444445 0.0 -0.0365
Created 1 atoms
  using lattice units in orthogonal box = (-0.05 -0.015 -0.05) to (0.05 0.015 0.05)
  create_atoms CPU = 0.000 seconds
set type 21 diameter 0.003
Setting atom values ...
  5 settings made for diameter
set type 21 density 0.01
Setting atom values ...
  5 settings made for density
bond_coeff 21 257.14285714285694 0.0017500000000000016
include bonds_21.txt
create_bonds single/bond 21 101 102
Finding 1-2 1-3 1-4 neighbors ...
  special bond factors lj:    0        1        1       
  special bond factors coul:  0        1        1       
     2 = max # of 1-2 neighbors
     2 = max # of special neighbors
  special bonds CPU = 0.000 seconds
create_bonds single/bond 21 102 103
Finding 1-2 1-3 1-4 neighbors ...
  special bond factors lj:    0        1        1       
  special bond factors coul:  0        1        1       
     2 = max # of 1-2 neighbors
     2 = max # of special neighbors
  special bonds CPU = 0.000 seconds
create_bonds single/bond 21 103 104
Finding 1-2 1-3 1-4 neighbors ...
  special bond factors lj:    0        1        1       
  special bond factors coul:  0        1        1       
     2 = max # of 1-2 neighbors
     2 = max # of special neighbors
  special bonds CPU = 0.000 seconds
create_bonds single/bond 21 104 105
Finding 1-2 1-3 1-4 neighbors ...
  special bond factors lj:    0        1        1       
  special bond factors coul:  0        1        1       
     2 = max # of 1-2 neighbors
     2 = max # of special neighbors
  special bonds CPU = 0.000 seconds
angle_coeff 21 0.0003857142857142854
include angles_21.txt
create_bonds single/angle 21 101 102 103
Finding 1-2 1-3 1-4 neighbors ...
  special bond factors lj:    0        1        1       
  special bond factors coul:  0        1        1       
     2 = max # of 1-2 neighbors
     2 = max # of special neighbors
  special bonds CPU = 0.000 seconds
create_bonds single/angle 21 102 103 104
Finding 1-2 1-3 1-4 neighbors ...
  special bond factors lj:    0        1        1       
  special bond factors coul:  0        1        1       
     2 = max # of 1-2 neighbors
     2 = max # of special neighbors
  special bonds CPU = 0.000 seconds
create_bonds single/angle 21 103 104 105
Finding 1-2 1-3 1-4 neighbors ...
  special bond factors lj:    0        1        1       
  special bond factors coul:  0        1        1       
     2 = max # of 1-2 neighbors
     2 = max # of special neighbors
  special bonds CPU = 0.000 seconds

include beam_22.txt
create_atoms 22 single -0.004444444444444445 0.0 -0.0235
Created 1 atoms
  using lattice units in orthogonal box = (-0.05 -0.015 -0.05) to (0.05 0.015 0.05)
  create_atoms CPU = 0.000 seconds
create_atoms 22 single -0.004444444444444445 0.0 -0.02175
Created 1 atoms
  using lattice units in orthogonal box = (-0.05 -0.015 -0.05) to (0.05 0.015 0.05)
  create_atoms CPU = 0.000 seconds
create_atoms 22 single -0.004444444444444445 0.0 -0.02
Created 1 atoms
  using lattice units in orthogonal box = (-0.05 -0.015 -0.05) to (0.05 0.015 0.05)
  create_atoms CPU = 0.000 seconds
create_atoms 22 single -0.004444444444444445 0.0 -0.018250000000000002
Created 1 atoms
  using lattice units in orthogonal box = (-0.05 -0.015 -0.05) to (0.05 0.015 0.05)
  create_atoms CPU = 0.000 seconds
create_atoms 22 single -0.004444444444444445 0.0 -0.0165
Created 1 atoms
  using lattice units in orthogonal box = (-0.05 -0.015 -0.05) to (0.05 0.015 0.05)
  create_atoms CPU = 0.000 seconds
set type 22 diameter 0.003
Setting atom values ...
  5 settings made for diameter
set type 22 density 0.01
Setting atom values ...
  5 settings made for density
bond_coeff 22 257.14285714285717 0.0017499999999999998
include bonds_22.txt
create_bonds single/bond 22 106 107
Finding 1-2 1-3 1-4 neighbors ...
  special bond factors lj:    0        1        1       
  special bond factors coul:  0        1        1       
     2 = max # of 1-2 neighbors
     2 = max # of special neighbors
  special bonds CPU = 0.000 seconds
create_bonds single/bond 22 107 108
Finding 1-2 1-3 1-4 neighbors ...
  special bond factors lj:    0        1        1       
  special bond factors coul:  0        1        1       
     2 = max # of 1-2 neighbors
     2 = max # of special neighbors
  special bonds CPU = 0.000 seconds
create_bonds single/bond 22 108 109
Finding 1-2 1-3 1-4 neighbors ...
  special bond factors lj:    0        1        1       
  special bond factors coul:  0        1        1       
     2 = max # of 1-2 neighbors
     2 = max # of special neighbors
  special bonds CPU = 0.000 seconds
create_bonds single/bond 22 109 110
Finding 1-2 1-3 1-4 neighbors ...
  special bond factors lj:    0        1        1       
  special bond factors coul:  0        1        1       
     2 = max # of 1-2 neighbors
     2 = max # of special neighbors
  special bonds CPU = 0.000 seconds
angle_coeff 22 0.0003857142857142857
include angles_22.txt
create_bonds single/angle 22 106 107 108
Finding 1-2 1-3 1-4 neighbors ...
  special bond factors lj:    0        1        1       
  special bond factors coul:  0        1        1       
     2 = max # of 1-2 neighbors
     2 = max # of special neighbors
  special bonds CPU = 0.000 seconds
create_bonds single/angle 22 107 108 109
Finding 1-2 1-3 1-4 neighbors ...
  special bond factors lj:    0        1        1       
  special bond factors coul:  0        1        1       
     2 = max # of 1-2 neighbors
     2 = max # of special neighbors
  special bonds CPU = 0.000 seconds
create_bonds single/angle 22 108 109 110
Finding 1-2 1-3 1-4 neighbors ...
  special bond factors lj:    0        1        1       
  special bond factors coul:  0        1        1       
     2 = max # of 1-2 neighbors
     2 = max # of special neighbors
  special bonds CPU = 0.000 seconds

include beam_23.txt
create_atoms 23 single -0.004444444444444445 0.0 -0.0035
Created 1 atoms
  using lattice units in orthogonal box = (-0.05 -0.015 -0.05) to (0.05 0.015 0.05)
  create_atoms CPU = 0.000 seconds
create_atoms 23 single -0.004444444444444445 0.0 -0.00175
Created 1 atoms
  using lattice units in orthogonal box = (-0.05 -0.015 -0.05) to (0.05 0.015 0.05)
  create_atoms CPU = 0.000 seconds
create_atoms 23 single -0.004444444444444445 0.0 0.0
Created 1 atoms
  using lattice units in orthogonal box = (-0.05 -0.015 -0.05) to (0.05 0.015 0.05)
  create_atoms CPU = 0.000 seconds
create_atoms 23 single -0.004444444444444445 0.0 0.0017500000000000003
Created 1 atoms
  using lattice units in orthogonal box = (-0.05 -0.015 -0.05) to (0.05 0.015 0.05)
  create_atoms CPU = 0.000 seconds
create_atoms 23 single -0.004444444444444445 0.0 0.0035
Created 1 atoms
  using lattice units in orthogonal box = (-0.05 -0.015 -0.05) to (0.05 0.015 0.05)
  create_atoms CPU = 0.000 seconds
set type 23 diameter 0.003
Setting atom values ...
  5 settings made for diameter
set type 23 density 0.01
Setting atom values ...
  5 settings made for density
bond_coeff 23 257.1428571428571 0.00175
include bonds_23.txt
create_bonds single/bond 23 111 112
Finding 1-2 1-3 1-4 neighbors ...
  special bond factors lj:    0        1        1       
  special bond factors coul:  0        1        1       
     2 = max # of 1-2 neighbors
     2 = max # of special neighbors
  special bonds CPU = 0.000 seconds
create_bonds single/bond 23 112 113
Finding 1-2 1-3 1-4 neighbors ...
  special bond factors lj:    0        1        1       
  special bond factors coul:  0        1        1       
     2 = max # of 1-2 neighbors
     2 = max # of special neighbors
  special bonds CPU = 0.000 seconds
create_bonds single/bond 23 113 114
Finding 1-2 1-3 1-4 neighbors ...
  special bond factors lj:    0        1        1       
  special bond factors coul:  0        1        1       
     2 = max # of 1-2 neighbors
     2 = max # of special neighbors
  special bonds CPU = 0.000 seconds
create_bonds single/bond 23 114 115
Finding 1-2 1-3 1-4 neighbors ...
  special bond factors lj:    0        1        1       
  special bond factors coul:  0        1        1       
     2 = max # of 1-2 neighbors
     2 = max # of special neighbors
  special bonds CPU = 0.000 seconds
angle_coeff 23 0.0003857142857142857
include angles_23.txt
create_bonds single/angle 23 111 112 113
Finding 1-2 1-3 1-4 neighbors ...
  special bond factors lj:    0        1        1       
  special bond factors coul:  0        1        1       
     2 = max # of 1-2 neighbors
     2 = max # of special neighbors
  special bonds CPU = 0.000 seconds
create_bonds single/angle 23 112 113 114
Finding 1-2 1-3 1-4 neighbors ...
  special bond factors lj:    0        1        1       
  special bond factors coul:  0        1        1       
     2 = max # of 1-2 neighbors
     2 = max # of special neighbors
  special bonds CPU = 0.000 seconds
create_bonds single/angle 23 113 114 115
Finding 1-2 1-3 1-4 neighbors ...
  special bond factors lj:    0        1        1       
  special bond factors coul:  0        1        1       
     2 = max # of 1-2 neighbors
     2 = max # of special neighbors
  special bonds CPU = 0.000 seconds

include beam_24.txt
create_atoms 24 single -0.004444444444444445 0.0 0.016499999999999997
Created 1 atoms
  using lattice units in orthogonal box = (-0.05 -0.015 -0.05) to (0.05 0.015 0.05)
  create_atoms CPU = 0.000 seconds
create_atoms 24 single -0.004444444444444445 0.0 0.018249999999999995
Created 1 atoms
  using lattice units in orthogonal box = (-0.05 -0.015 -0.05) to (0.05 0.015 0.05)
  create_atoms CPU = 0.000 seconds
create_atoms 24 single -0.004444444444444445 0.0 0.019999999999999997
Created 1 atoms
  using lattice units in orthogonal box = (-0.05 -0.015 -0.05) to (0.05 0.015 0.05)
  create_atoms CPU = 0.000 seconds
create_atoms 24 single -0.004444444444444445 0.0 0.02175
Created 1 atoms
  using lattice units in orthogonal box = (-0.05 -0.015 -0.05) to (0.05 0.015 0.05)
  create_atoms CPU = 0.000 seconds
create_atoms 24 single -0.004444444444444445 0.0 0.023499999999999997
Created 1 atoms
  using lattice units in orthogonal box = (-0.05 -0.015 -0.05) to (0.05 0.015 0.05)
  create_atoms CPU = 0.000 seconds
set type 24 diameter 0.003
Setting atom values ...
  5 settings made for diameter
set type 24 density 0.01
Setting atom values ...
  5 settings made for density
bond_coeff 24 257.14285714285717 0.0017499999999999998
include bonds_24.txt
create_bonds single/bond 24 116 117
Finding 1-2 1-3 1-4 neighbors ...
  special bond factors lj:    0        1        1       
  special bond factors coul:  0        1        1       
     2 = max # of 1-2 neighbors
     2 = max # of special neighbors
  special bonds CPU = 0.000 seconds
create_bonds single/bond 24 117 118
Finding 1-2 1-3 1-4 neighbors ...
  special bond factors lj:    0        1        1       
  special bond factors coul:  0        1        1       
     2 = max # of 1-2 neighbors
     2 = max # of special neighbors
  special bonds CPU = 0.000 seconds
create_bonds single/bond 24 118 119
Finding 1-2 1-3 1-4 neighbors ...
  special bond factors lj:    0        1        1       
  special bond factors coul:  0        1        1       
     2 = max # of 1-2 neighbors
     2 = max # of special neighbors
  special bonds CPU = 0.000 seconds
create_bonds single/bond 24 119 120
Finding 1-2 1-3 1-4 neighbors ...
  special bond factors lj:    0        1        1       
  special bond factors coul:  0        1        1       
     2 = max # of 1-2 neighbors
     2 = max # of special neighbors
  special bonds CPU = 0.000 seconds
angle_coeff 24 0.0003857142857142857
include angles_24.txt
create_bonds single/angle 24 116 117 118
Finding 1-2 1-3 1-4 neighbors ...
  special bond factors lj:    0        1        1       
  special bond factors coul:  0        1        1       
     2 = max # of 1-2 neighbors
     2 = max # of special neighbors
  special bonds CPU = 0.000 seconds
create_bonds single/angle 24 117 118 119
Finding 1-2 1-3 1-4 neighbors ...
  special bond factors lj:    0        1        1       
  special bond factors coul:  0        1        1       
     2 = max # of 1-2 neighbors
     2 = max # of special neighbors
  special bonds CPU = 0.000 seconds
create_bonds single/angle 24 118 119 120
Finding 1-2 1-3 1-4 neighbors ...
  special bond factors lj:    0        1        1       
  special bond factors coul:  0        1        1       
[...]
  create_atoms CPU = 0.000 seconds
create_atoms 44 single 0.03111111111111111 0.0 0.023499999999999997
Created 1 atoms
  using lattice units in orthogonal box = (-0.05 -0.015 -0.05) to (0.05 0.015 0.05)
  create_atoms CPU = 0.000 seconds
set type 44 diameter 0.003
Setting atom values ...
  5 settings made for diameter
set type 44 density 0.01
Setting atom values ...
  5 settings made for density
bond_coeff 44 257.14285714285717 0.0017499999999999998
include bonds_44.txt
create_bonds single/bond 44 216 217
Finding 1-2 1-3 1-4 neighbors ...
  special bond factors lj:    0        1        1       
  special bond factors coul:  0        1        1       
     2 = max # of 1-2 neighbors
     2 = max # of special neighbors
  special bonds CPU = 0.000 seconds
create_bonds single/bond 44 217 218
Finding 1-2 1-3 1-4 neighbors ...
  special bond factors lj:    0        1        1       
  special bond factors coul:  0        1        1       
     2 = max # of 1-2 neighbors
     2 = max # of special neighbors
  special bonds CPU = 0.000 seconds
create_bonds single/bond 44 218 219
Finding 1-2 1-3 1-4 neighbors ...
  special bond factors lj:    0        1        1       
  special bond factors coul:  0        1        1       
     2 = max # of 1-2 neighbors
     2 = max # of special neighbors
  special bonds CPU = 0.000 seconds
create_bonds single/bond 44 219 220
Finding 1-2 1-3 1-4 neighbors ...
  special bond factors lj:    0        1        1       
  special bond factors coul:  0        1        1       
     2 = max # of 1-2 neighbors
     2 = max # of special neighbors
  special bonds CPU = 0.000 seconds
angle_coeff 44 0.0003857142857142857
include angles_44.txt
create_bonds single/angle 44 216 217 218
Finding 1-2 1-3 1-4 neighbors ...
  special bond factors lj:    0        1        1       
  special bond factors coul:  0        1        1       
     2 = max # of 1-2 neighbors
     2 = max # of special neighbors
  special bonds CPU = 0.000 seconds
create_bonds single/angle 44 217 218 219
Finding 1-2 1-3 1-4 neighbors ...
  special bond factors lj:    0        1        1       
  special bond factors coul:  0        1        1       
     2 = max # of 1-2 neighbors
     2 = max # of special neighbors
  special bonds CPU = 0.000 seconds
create_bonds single/angle 44 218 219 220
Finding 1-2 1-3 1-4 neighbors ...
  special bond factors lj:    0        1        1       
  special bond factors coul:  0        1        1       
     2 = max # of 1-2 neighbors
     2 = max # of special neighbors
  special bonds CPU = 0.000 seconds

include beam_45.txt
create_atoms 45 single 0.03111111111111111 0.0 0.0365
Created 1 atoms
  using lattice units in orthogonal box = (-0.05 -0.015 -0.05) to (0.05 0.015 0.05)
  create_atoms CPU = 0.000 seconds
create_atoms 45 single 0.03111111111111111 0.0 0.03825
Created 1 atoms
  using lattice units in orthogonal box = (-0.05 -0.015 -0.05) to (0.05 0.015 0.05)
  create_atoms CPU = 0.000 seconds
create_atoms 45 single 0.03111111111111111 0.0 0.04
Created 1 atoms
  using lattice units in orthogonal box = (-0.05 -0.015 -0.05) to (0.05 0.015 0.05)
  create_atoms CPU = 0.000 seconds
create_atoms 45 single 0.03111111111111111 0.0 0.04175
Created 1 atoms
  using lattice units in orthogonal box = (-0.05 -0.015 -0.05) to (0.05 0.015 0.05)
  create_atoms CPU = 0.000 seconds
create_atoms 45 single 0.03111111111111111 0.0 0.043500000000000004
Created 1 atoms
  using lattice units in orthogonal box = (-0.05 -0.015 -0.05) to (0.05 0.015 0.05)
  create_atoms CPU = 0.000 seconds
set type 45 diameter 0.003
Setting atom values ...
  5 settings made for diameter
set type 45 density 0.01
Setting atom values ...
  5 settings made for density
bond_coeff 45 257.14285714285694 0.0017500000000000016
include bonds_45.txt
create_bonds single/bond 45 221 222
Finding 1-2 1-3 1-4 neighbors ...
  special bond factors lj:    0        1        1       
  special bond factors coul:  0        1        1       
     2 = max # of 1-2 neighbors
     2 = max # of special neighbors
  special bonds CPU = 0.000 seconds
create_bonds single/bond 45 222 223
Finding 1-2 1-3 1-4 neighbors ...
  special bond factors lj:    0        1        1       
  special bond factors coul:  0        1        1       
     2 = max # of 1-2 neighbors
     2 = max # of special neighbors
  special bonds CPU = 0.000 seconds
create_bonds single/bond 45 223 224
Finding 1-2 1-3 1-4 neighbors ...
  special bond factors lj:    0        1        1       
  special bond factors coul:  0        1        1       
     2 = max # of 1-2 neighbors
     2 = max # of special neighbors
  special bonds CPU = 0.000 seconds
create_bonds single/bond 45 224 225
Finding 1-2 1-3 1-4 neighbors ...
  special bond factors lj:    0        1        1       
  special bond factors coul:  0        1        1       
     2 = max # of 1-2 neighbors
     2 = max # of special neighbors
  special bonds CPU = 0.000 seconds
angle_coeff 45 0.0003857142857142854
include angles_45.txt
create_bonds single/angle 45 221 222 223
Finding 1-2 1-3 1-4 neighbors ...
  special bond factors lj:    0        1        1       
  special bond factors coul:  0        1        1       
     2 = max # of 1-2 neighbors
     2 = max # of special neighbors
  special bonds CPU = 0.000 seconds
create_bonds single/angle 45 222 223 224
Finding 1-2 1-3 1-4 neighbors ...
  special bond factors lj:    0        1        1       
  special bond factors coul:  0        1        1       
     2 = max # of 1-2 neighbors
     2 = max # of special neighbors
  special bonds CPU = 0.000 seconds
create_bonds single/angle 45 223 224 225
Finding 1-2 1-3 1-4 neighbors ...
  special bond factors lj:    0        1        1       
  special bond factors coul:  0        1        1       
     2 = max # of 1-2 neighbors
     2 = max # of special neighbors
  special bonds CPU = 0.000 seconds

include beam_46.txt
create_atoms 46 single 0.04 0.0 -0.043500000000000004
Created 1 atoms
  using lattice units in orthogonal box = (-0.05 -0.015 -0.05) to (0.05 0.015 0.05)
  create_atoms CPU = 0.000 seconds
create_atoms 46 single 0.04 0.0 -0.04175
Created 1 atoms
  using lattice units in orthogonal box = (-0.05 -0.015 -0.05) to (0.05 0.015 0.05)
  create_atoms CPU = 0.000 seconds
create_atoms 46 single 0.04 0.0 -0.04
Created 1 atoms
  using lattice units in orthogonal box = (-0.05 -0.015 -0.05) to (0.05 0.015 0.05)
  create_atoms CPU = 0.000 seconds
create_atoms 46 single 0.04 0.0 -0.03825
Created 1 atoms
  using lattice units in orthogonal box = (-0.05 -0.015 -0.05) to (0.05 0.015 0.05)
  create_atoms CPU = 0.000 seconds
create_atoms 46 single 0.04 0.0 -0.0365
Created 1 atoms
  using lattice units in orthogonal box = (-0.05 -0.015 -0.05) to (0.05 0.015 0.05)
  create_atoms CPU = 0.000 seconds
set type 46 diameter 0.003
Setting atom values ...
  5 settings made for diameter
set type 46 density 0.01
Setting atom values ...
  5 settings made for density
bond_coeff 46 257.14285714285694 0.0017500000000000016
include bonds_46.txt
create_bonds single/bond 46 226 227
Finding 1-2 1-3 1-4 neighbors ...
  special bond factors lj:    0        1        1       
  special bond factors coul:  0        1        1       
     2 = max # of 1-2 neighbors
     2 = max # of special neighbors
  special bonds CPU = 0.000 seconds
create_bonds single/bond 46 227 228
Finding 1-2 1-3 1-4 neighbors ...
  special bond factors lj:    0        1        1       
  special bond factors coul:  0        1        1       
     2 = max # of 1-2 neighbors
     2 = max # of special neighbors
  special bonds CPU = 0.000 seconds
create_bonds single/bond 46 228 229
Finding 1-2 1-3 1-4 neighbors ...
  special bond factors lj:    0        1        1       
  special bond factors coul:  0        1        1       
     2 = max # of 1-2 neighbors
     2 = max # of special neighbors
  special bonds CPU = 0.000 seconds
create_bonds single/bond 46 229 230
Finding 1-2 1-3 1-4 neighbors ...
  special bond factors lj:    0        1        1       
  special bond factors coul:  0        1        1       
     2 = max # of 1-2 neighbors
     2 = max # of special neighbors
  special bonds CPU = 0.000 seconds
angle_coeff 46 0.0003857142857142854
include angles_46.txt
create_bonds single/angle 46 226 227 228
Finding 1-2 1-3 1-4 neighbors ...
  special bond factors lj:    0        1        1       
  special bond factors coul:  0        1        1       
     2 = max # of 1-2 neighbors
     2 = max # of special neighbors
  special bonds CPU = 0.000 seconds
create_bonds single/angle 46 227 228 229
Finding 1-2 1-3 1-4 neighbors ...
  special bond factors lj:    0        1        1       
  special bond factors coul:  0        1        1       
     2 = max # of 1-2 neighbors
     2 = max # of special neighbors
  special bonds CPU = 0.000 seconds
create_bonds single/angle 46 228 229 230
Finding 1-2 1-3 1-4 neighbors ...
  special bond factors lj:    0        1        1       
  special bond factors coul:  0        1        1       
     2 = max # of 1-2 neighbors
     2 = max # of special neighbors
  special bonds CPU = 0.000 seconds

include beam_47.txt
create_atoms 47 single 0.04 0.0 -0.0235
Created 1 atoms
  using lattice units in orthogonal box = (-0.05 -0.015 -0.05) to (0.05 0.015 0.05)
  create_atoms CPU = 0.000 seconds
create_atoms 47 single 0.04 0.0 -0.02175
Created 1 atoms
  using lattice units in orthogonal box = (-0.05 -0.015 -0.05) to (0.05 0.015 0.05)
  create_atoms CPU = 0.000 seconds
create_atoms 47 single 0.04 0.0 -0.02
Created 1 atoms
  using lattice units in orthogonal box = (-0.05 -0.015 -0.05) to (0.05 0.015 0.05)
  create_atoms CPU = 0.000 seconds
create_atoms 47 single 0.04 0.0 -0.018250000000000002
Created 1 atoms
  using lattice units in orthogonal box = (-0.05 -0.015 -0.05) to (0.05 0.015 0.05)
  create_atoms CPU = 0.000 seconds
create_atoms 47 single 0.04 0.0 -0.0165
Created 1 atoms
  using lattice units in orthogonal box = (-0.05 -0.015 -0.05) to (0.05 0.015 0.05)
  create_atoms CPU = 0.000 seconds
set type 47 diameter 0.003
Setting atom values ...
  5 settings made for diameter
set type 47 density 0.01
Setting atom values ...
  5 settings made for density
bond_coeff 47 257.14285714285717 0.0017499999999999998
include bonds_47.txt
create_bonds single/bond 47 231 232
Finding 1-2 1-3 1-4 neighbors ...
  special bond factors lj:    0        1        1       
  special bond factors coul:  0        1        1       
     2 = max # of 1-2 neighbors
     2 = max # of special neighbors
  special bonds CPU = 0.000 seconds
create_bonds single/bond 47 232 233
Finding 1-2 1-3 1-4 neighbors ...
  special bond factors lj:    0        1        1       
  special bond factors coul:  0        1        1       
     2 = max # of 1-2 neighbors
     2 = max # of special neighbors
  special bonds CPU = 0.000 seconds
create_bonds single/bond 47 233 234
Finding 1-2 1-3 1-4 neighbors ...
  special bond factors lj:    0        1        1       
  special bond factors coul:  0        1        1       
     2 = max # of 1-2 neighbors
     2 = max # of special neighbors
  special bonds CPU = 0.000 seconds
create_bonds single/bond 47 234 235
Finding 1-2 1-3 1-4 neighbors ...
  special bond factors lj:    0        1        1       
  special bond factors coul:  0        1        1       
     2 = max # of 1-2 neighbors
     2 = max # of special neighbors
  special bonds CPU = 0.000 seconds
angle_coeff 47 0.0003857142857142857
include angles_47.txt
create_bonds single/angle 47 231 232 233
Finding 1-2 1-3 1-4 neighbors ...
  special bond factors lj:    0        1        1       
  special bond factors coul:  0        1        1       
     2 = max # of 1-2 neighbors
     2 = max # of special neighbors
  special bonds CPU = 0.000 seconds
create_bonds single/angle 47 232 233 234
Finding 1-2 1-3 1-4 neighbors ...
  special bond factors lj:    0        1        1       
  special bond factors coul:  0        1        1       
     2 = max # of 1-2 neighbors
     2 = max # of special neighbors
  special bonds CPU = 0.000 seconds
create_bonds single/angle 47 233 234 235
Finding 1-2 1-3 1-4 neighbors ...
  special bond factors lj:    0        1        1       
  special bond factors coul:  0        1        1       
     2 = max # of 1-2 neighbors
     2 = max # of special neighbors
  special bonds CPU = 0.000 seconds

include beam_48.txt
create_atoms 48 single 0.04 0.0 -0.0035
Created 1 atoms
  using lattice units in orthogonal box = (-0.05 -0.015 -0.05) to (0.05 0.015 0.05)
  create_atoms CPU = 0.000 seconds
create_atoms 48 single 0.04 0.0 -0.00175
Created 1 atoms
  using lattice units in orthogonal box = (-0.05 -0.015 -0.05) to (0.05 0.015 0.05)
  create_atoms CPU = 0.000 seconds
create_atoms 48 single 0.04 0.0 0.0
Created 1 atoms
  using lattice units in orthogonal box = (-0.05 -0.015 -0.05) to (0.05 0.015 0.05)
  create_atoms CPU = 0.000 seconds
create_atoms 48 single 0.04 0.0 0.0017500000000000003
Created 1 atoms
  using lattice units in orthogonal box = (-0.05 -0.015 -0.05) to (0.05 0.015 0.05)
  create_atoms CPU = 0.000 seconds
create_atoms 48 single 0.04 0.0 0.0035
Created 1 atoms
  using lattice units in orthogonal box = (-0.05 -0.015 -0.05) to (0.05 0.015 0.05)
  create_atoms CPU = 0.000 seconds
set type 48 diameter 0.003
Setting atom values ...
  5 settings made for diameter
set type 48 density 0.01
Setting atom values ...
  5 settings made for density
bond_coeff 48 257.1428571428571 0.00175
include bonds_48.txt
create_bonds single/bond 48 236 237
Finding 1-2 1-3 1-4 neighbors ...
  special bond factors lj:    0        1        1       
  special bond factors coul:  0        1        1       
     2 = max # of 1-2 neighbors
     2 = max # of special neighbors
  special bonds CPU = 0.000 seconds
create_bonds single/bond 48 237 238
Finding 1-2 1-3 1-4 neighbors ...
  special bond factors lj:    0        1        1       
  special bond factors coul:  0        1        1       
     2 = max # of 1-2 neighbors
     2 = max # of special neighbors
  special bonds CPU = 0.000 seconds
create_bonds single/bond 48 238 239
Finding 1-2 1-3 1-4 neighbors ...
  special bond factors lj:    0        1        1       
  special bond factors coul:  0        1        1       
     2 = max # of 1-2 neighbors
     2 = max # of special neighbors
  special bonds CPU = 0.000 seconds
create_bonds single/bond 48 239 240
Finding 1-2 1-3 1-4 neighbors ...
  special bond factors lj:    0        1        1       
  special bond factors coul:  0        1        1       
     2 = max # of 1-2 neighbors
     2 = max # of special neighbors
  special bonds CPU = 0.000 seconds
angle_coeff 48 0.0003857142857142857
include angles_48.txt
create_bonds single/angle 48 236 237 238
Finding 1-2 1-3 1-4 neighbors ...
  special bond factors lj:    0        1        1       
  special bond factors coul:  0        1        1       
     2 = max # of 1-2 neighbors
     2 = max # of special neighbors
  special bonds CPU = 0.000 seconds
create_bonds single/angle 48 237 238 239
Finding 1-2 1-3 1-4 neighbors ...
  special bond factors lj:    0        1        1       
  special bond factors coul:  0        1        1       
     2 = max # of 1-2 neighbors
     2 = max # of special neighbors
  special bonds CPU = 0.000 seconds
create_bonds single/angle 48 238 239 240
Finding 1-2 1-3 1-4 neighbors ...
  special bond factors lj:    0        1        1       
  special bond factors coul:  0        1        1       
     2 = max # of 1-2 neighbors
     2 = max # of special neighbors
  special bonds CPU = 0.000 seconds

include beam_49.txt
create_atoms 49 single 0.04 0.0 0.016499999999999997
Created 1 atoms
  using lattice units in orthogonal box = (-0.05 -0.015 -0.05) to (0.05 0.015 0.05)
  create_atoms CPU = 0.000 seconds
create_atoms 49 single 0.04 0.0 0.018249999999999995
Created 1 atoms
  using lattice units in orthogonal box = (-0.05 -0.015 -0.05) to (0.05 0.015 0.05)
  create_atoms CPU = 0.000 seconds
create_atoms 49 single 0.04 0.0 0.019999999999999997
Created 1 atoms
  using lattice units in orthogonal box = (-0.05 -0.015 -0.05) to (0.05 0.015 0.05)
  create_atoms CPU = 0.000 seconds
create_atoms 49 single 0.04 0.0 0.02175
Created 1 atoms
  using lattice units in orthogonal box = (-0.05 -0.015 -0.05) to (0.05 0.015 0.05)
  create_atoms CPU = 0.000 seconds
create_atoms 49 single 0.04 0.0 0.023499999999999997
Created 1 atoms
  using lattice units in orthogonal box = (-0.05 -0.015 -0.05) to (0.05 0.015 0.05)
  create_atoms CPU = 0.000 seconds
set type 49 diameter 0.003
Setting atom values ...
  5 settings made for diameter
set type 49 density 0.01
Setting atom values ...
  5 settings made for density
bond_coeff 49 257.14285714285717 0.0017499999999999998
include bonds_49.txt
create_bonds single/bond 49 241 242
Finding 1-2 1-3 1-4 neighbors ...
  special bond factors lj:    0        1        1       
  special bond factors coul:  0        1        1       
     2 = max # of 1-2 neighbors
     2 = max # of special neighbors
  special bonds CPU = 0.000 seconds
create_bonds single/bond 49 242 243
Finding 1-2 1-3 1-4 neighbors ...
  special bond factors lj:    0        1        1       
  special bond factors coul:  0        1        1       
     2 = max # of 1-2 neighbors
     2 = max # of special neighbors
  special bonds CPU = 0.000 seconds
create_bonds single/bond 49 243 244
Finding 1-2 1-3 1-4 neighbors ...
  special bond factors lj:    0        1        1       
  special bond factors coul:  0        1        1       
     2 = max # of 1-2 neighbors
     2 = max # of special neighbors
  special bonds CPU = 0.000 seconds
create_bonds single/bond 49 244 245
Finding 1-2 1-3 1-4 neighbors ...
  special bond factors lj:    0        1        1       
  special bond factors coul:  0        1        1       
     2 = max # of 1-2 neighbors
     2 = max # of special neighbors
  special bonds CPU = 0.000 seconds
angle_coeff 49 0.0003857142857142857
include angles_49.txt
create_bonds single/angle 49 241 242 243
Finding 1-2 1-3 1-4 neighbors ...
  special bond factors lj:    0        1        1       
  special bond factors coul:  0        1        1       
     2 = max # of 1-2 neighbors
     2 = max # of special neighbors
  special bonds CPU = 0.000 seconds
create_bonds single/angle 49 242 243 244
Finding 1-2 1-3 1-4 neighbors ...
  special bond factors lj:    0        1        1       
  special bond factors coul:  0        1        1       
     2 = max # of 1-2 neighbors
     2 = max # of special neighbors
  special bonds CPU = 0.000 seconds
create_bonds single/angle 49 243 244 245
Finding 1-2 1-3 1-4 neighbors ...
  special bond factors lj:    0        1        1       
  special bond factors coul:  0        1        1       
     2 = max # of 1-2 neighbors
     2 = max # of special neighbors
  special bonds CPU = 0.000 seconds

include beam_50.txt
create_atoms 50 single 0.04 0.0 0.0365
Created 1 atoms
  using lattice units in orthogonal box = (-0.05 -0.015 -0.05) to (0.05 0.015 0.05)
  create_atoms CPU = 0.000 seconds
create_atoms 50 single 0.04 0.0 0.03825
Created 1 atoms
  using lattice units in orthogonal box = (-0.05 -0.015 -0.05) to (0.05 0.015 0.05)
  create_atoms CPU = 0.000 seconds
create_atoms 50 single 0.04 0.0 0.04
Created 1 atoms
  using lattice units in orthogonal box = (-0.05 -0.015 -0.05) to (0.05 0.015 0.05)
  create_atoms CPU = 0.000 seconds
create_atoms 50 single 0.04 0.0 0.04175
Created 1 atoms
  using lattice units in orthogonal box = (-0.05 -0.015 -0.05) to (0.05 0.015 0.05)
  create_atoms CPU = 0.000 seconds
create_atoms 50 single 0.04 0.0 0.043500000000000004
Created 1 atoms
  using lattice units in orthogonal box = (-0.05 -0.015 -0.05) to (0.05 0.015 0.05)
  create_atoms CPU = 0.000 seconds
set type 50 diameter 0.003
Setting atom values ...
  5 settings made for diameter
set type 50 density 0.01
Setting atom values ...
  5 settings made for density
bond_coeff 50 257.14285714285694 0.0017500000000000016
include bonds_50.txt
create_b