LAMMPS (29 Aug 2024)
  using 1 OpenMP thread(s) per MPI task
atom_style hybrid angle sphere
WARNING: Atom style hybrid defines both, per-type and per-atom masses; both must be set, but only per-atom masses will be used (src/atom_vec_hybrid.cpp:132)
units si
processors	* * 1
comm_modify vel yes

region simulationStation block -0.05 0.05 -0.015 0.015 -0.05 0.05
create_box 100 simulationStation bond/types 100000 extra/bond/per/atom 100 angle/types 10000 extra/angle/per/atom 100
Created orthogonal box = (-0.05 -0.015 -0.05) to (0.05 0.015 0.05)
  1 by 1 by 1 MPI processor grid
change_box	all boundary f f f
Changing box ...

pair_style hybrid/overlay granular lj/cut 0
pair_coeff  * * granular hertz/material 0 0 0 tangential linear_nohistory 0 0
pair_coeff  * * lj/cut 0 0 0

special_bonds lj/coul 0 1.0 1.0
Finding 1-2 1-3 1-4 neighbors ...
  special bond factors lj:    0        1        1       
  special bond factors coul:  0        1        1       
     0 = max # of 1-2 neighbors
     1 = max # of special neighbors
  special bonds CPU = 0.000 seconds
bond_style harmonic
angle_style cosine

bond_coeff * 0 0
angle_coeff * 0
fix integration all nve/sphere
neigh_modify page 500000 one 50000


### Here we will begin to include particles ###


include beam_1.txt
create_atoms 1 single -0.04 0.0 -0.043500000000000004
Created 1 atoms
  using lattice units in orthogonal box = (-0.05 -0.015 -0.05) to (0.05 0.015 0.05)
  create_atoms CPU = 0.000 seconds
create_atoms 1 single -0.04 0.0 -0.042722222222222224
Created 1 atoms
  using lattice units in orthogonal box = (-0.05 -0.015 -0.05) to (0.05 0.015 0.05)
  create_atoms CPU = 0.001 seconds
create_atoms 1 single -0.04 0.0 -0.041944444444444444
Created 1 atoms
  using lattice units in orthogonal box = (-0.05 -0.015 -0.05) to (0.05 0.015 0.05)
  create_atoms CPU = 0.000 seconds
create_atoms 1 single -0.04 0.0 -0.04116666666666667
Created 1 atoms
  using lattice units in orthogonal box = (-0.05 -0.015 -0.05) to (0.05 0.015 0.05)
  create_atoms CPU = 0.000 seconds
create_atoms 1 single -0.04 0.0 -0.04038888888888889
Created 1 atoms
  using lattice units in orthogonal box = (-0.05 -0.015 -0.05) to (0.05 0.015 0.05)
  create_atoms CPU = 0.000 seconds
create_atoms 1 single -0.04 0.0 -0.03961111111111111
Created 1 atoms
  using lattice units in orthogonal box = (-0.05 -0.015 -0.05) to (0.05 0.015 0.05)
  create_atoms CPU = 0.000 seconds
create_atoms 1 single -0.04 0.0 -0.03883333333333333
Created 1 atoms
  using lattice units in orthogonal box = (-0.05 -0.015 -0.05) to (0.05 0.015 0.05)
  create_atoms CPU = 0.000 seconds
create_atoms 1 single -0.04 0.0 -0.03805555555555555
Created 1 atoms
  using lattice units in orthogonal box = (-0.05 -0.015 -0.05) to (0.05 0.015 0.05)
  create_atoms CPU = 0.000 seconds
create_atoms 1 single -0.04 0.0 -0.03727777777777778
Created 1 atoms
  using lattice units in orthogonal box = (-0.05 -0.015 -0.05) to (0.05 0.015 0.05)
  create_atoms CPU = 0.000 seconds
create_atoms 1 single -0.04 0.0 -0.0365
Created 1 atoms
  using lattice units in orthogonal box = (-0.05 -0.015 -0.05) to (0.05 0.015 0.05)
  create_atoms CPU = 0.000 seconds
set type 1 diameter 0.003
Setting atom values ...
  10 settings made for diameter
set type 1 density 0.01
Setting atom values ...
  10 settings made for density
bond_coeff 1 578.5714285714281 0.0007777777777777785
include bonds_1.txt
create_bonds single/bond 1 1 2
Finding 1-2 1-3 1-4 neighbors ...
  special bond factors lj:    0        1        1       
  special bond factors coul:  0        1        1       
     1 = max # of 1-2 neighbors
     1 = max # of special neighbors
  special bonds CPU = 0.000 seconds
create_bonds single/bond 1 2 3
Finding 1-2 1-3 1-4 neighbors ...
  special bond factors lj:    0        1        1       
  special bond factors coul:  0        1        1       
     2 = max # of 1-2 neighbors
     2 = max # of special neighbors
  special bonds CPU = 0.000 seconds
create_bonds single/bond 1 3 4
Finding 1-2 1-3 1-4 neighbors ...
  special bond factors lj:    0        1        1       
  special bond factors coul:  0        1        1       
     2 = max # of 1-2 neighbors
     2 = max # of special neighbors
  special bonds CPU = 0.000 seconds
create_bonds single/bond 1 4 5
Finding 1-2 1-3 1-4 neighbors ...
  special bond factors lj:    0        1        1       
  special bond factors coul:  0        1        1       
     2 = max # of 1-2 neighbors
     2 = max # of special neighbors
  special bonds CPU = 0.000 seconds
create_bonds single/bond 1 5 6
Finding 1-2 1-3 1-4 neighbors ...
  special bond factors lj:    0        1        1       
  special bond factors coul:  0        1        1       
     2 = max # of 1-2 neighbors
     2 = max # of special neighbors
  special bonds CPU = 0.000 seconds
create_bonds single/bond 1 6 7
Finding 1-2 1-3 1-4 neighbors ...
  special bond factors lj:    0        1        1       
  special bond factors coul:  0        1        1       
     2 = max # of 1-2 neighbors
     2 = max # of special neighbors
  special bonds CPU = 0.000 seconds
create_bonds single/bond 1 7 8
Finding 1-2 1-3 1-4 neighbors ...
  special bond factors lj:    0        1        1       
  special bond factors coul:  0        1        1       
     2 = max # of 1-2 neighbors
     2 = max # of special neighbors
  special bonds CPU = 0.000 seconds
create_bonds single/bond 1 8 9
Finding 1-2 1-3 1-4 neighbors ...
  special bond factors lj:    0        1        1       
  special bond factors coul:  0        1        1       
     2 = max # of 1-2 neighbors
     2 = max # of special neighbors
  special bonds CPU = 0.000 seconds
create_bonds single/bond 1 9 10
Finding 1-2 1-3 1-4 neighbors ...
  special bond factors lj:    0        1        1       
  special bond factors coul:  0        1        1       
     2 = max # of 1-2 neighbors
     2 = max # of special neighbors
  special bonds CPU = 0.000 seconds
angle_coeff 1 0.0008678571428571421
include angles_1.txt
create_bonds single/angle 1 1 2 3
Finding 1-2 1-3 1-4 neighbors ...
  special bond factors lj:    0        1        1       
  special bond factors coul:  0        1        1       
     2 = max # of 1-2 neighbors
     2 = max # of special neighbors
  special bonds CPU = 0.000 seconds
create_bonds single/angle 1 2 3 4
Finding 1-2 1-3 1-4 neighbors ...
  special bond factors lj:    0        1        1       
  special bond factors coul:  0        1        1       
     2 = max # of 1-2 neighbors
     2 = max # of special neighbors
  special bonds CPU = 0.000 seconds
create_bonds single/angle 1 3 4 5
Finding 1-2 1-3 1-4 neighbors ...
  special bond factors lj:    0        1        1       
  special bond factors coul:  0        1        1       
     2 = max # of 1-2 neighbors
     2 = max # of special neighbors
  special bonds CPU = 0.000 seconds
create_bonds single/angle 1 4 5 6
Finding 1-2 1-3 1-4 neighbors ...
  special bond factors lj:    0        1        1       
  special bond factors coul:  0        1        1       
     2 = max # of 1-2 neighbors
     2 = max # of special neighbors
  special bonds CPU = 0.000 seconds
create_bonds single/angle 1 5 6 7
Finding 1-2 1-3 1-4 neighbors ...
  special bond factors lj:    0        1        1       
  special bond factors coul:  0        1        1       
     2 = max # of 1-2 neighbors
     2 = max # of special neighbors
  special bonds CPU = 0.000 seconds
create_bonds single/angle 1 6 7 8
Finding 1-2 1-3 1-4 neighbors ...
  special bond factors lj:    0        1        1       
  special bond factors coul:  0        1        1       
     2 = max # of 1-2 neighbors
     2 = max # of special neighbors
  special bonds CPU = 0.000 seconds
create_bonds single/angle 1 7 8 9
Finding 1-2 1-3 1-4 neighbors ...
  special bond factors lj:    0        1        1       
  special bond factors coul:  0        1        1       
     2 = max # of 1-2 neighbors
     2 = max # of special neighbors
  special bonds CPU = 0.000 seconds
create_bonds single/angle 1 8 9 10
Finding 1-2 1-3 1-4 neighbors ...
  special bond factors lj:    0        1        1       
  special bond factors coul:  0        1        1       
     2 = max # of 1-2 neighbors
     2 = max # of special neighbors
  special bonds CPU = 0.000 seconds

include beam_2.txt
create_atoms 2 single -0.04 0.0 -0.0235
Created 1 atoms
  using lattice units in orthogonal box = (-0.05 -0.015 -0.05) to (0.05 0.015 0.05)
  create_atoms CPU = 0.000 seconds
create_atoms 2 single -0.04 0.0 -0.022722222222222224
Created 1 atoms
  using lattice units in orthogonal box = (-0.05 -0.015 -0.05) to (0.05 0.015 0.05)
  create_atoms CPU = 0.000 seconds
create_atoms 2 single -0.04 0.0 -0.021944444444444444
Created 1 atoms
  using lattice units in orthogonal box = (-0.05 -0.015 -0.05) to (0.05 0.015 0.05)
  create_atoms CPU = 0.000 seconds
create_atoms 2 single -0.04 0.0 -0.021166666666666667
Created 1 atoms
  using lattice units in orthogonal box = (-0.05 -0.015 -0.05) to (0.05 0.015 0.05)
  create_atoms CPU = 0.000 seconds
create_atoms 2 single -0.04 0.0 -0.02038888888888889
Created 1 atoms
  using lattice units in orthogonal box = (-0.05 -0.015 -0.05) to (0.05 0.015 0.05)
  create_atoms CPU = 0.000 seconds
create_atoms 2 single -0.04 0.0 -0.01961111111111111
Created 1 atoms
  using lattice units in orthogonal box = (-0.05 -0.015 -0.05) to (0.05 0.015 0.05)
  create_atoms CPU = 0.000 seconds
create_atoms 2 single -0.04 0.0 -0.018833333333333334
Created 1 atoms
  using lattice units in orthogonal box = (-0.05 -0.015 -0.05) to (0.05 0.015 0.05)
  create_atoms CPU = 0.000 seconds
create_atoms 2 single -0.04 0.0 -0.018055555555555557
Created 1 atoms
  using lattice units in orthogonal box = (-0.05 -0.015 -0.05) to (0.05 0.015 0.05)
  create_atoms CPU = 0.000 seconds
create_atoms 2 single -0.04 0.0 -0.017277777777777777
Created 1 atoms
  using lattice units in orthogonal box = (-0.05 -0.015 -0.05) to (0.05 0.015 0.05)
  create_atoms CPU = 0.000 seconds
create_atoms 2 single -0.04 0.0 -0.0165
Created 1 atoms
  using lattice units in orthogonal box = (-0.05 -0.015 -0.05) to (0.05 0.015 0.05)
  create_atoms CPU = 0.000 seconds
set type 2 diameter 0.003
Setting atom values ...
  10 settings made for diameter
set type 2 density 0.01
Setting atom values ...
  10 settings made for density
bond_coeff 2 578.5714285714287 0.0007777777777777777
include bonds_2.txt
create_bonds single/bond 2 11 12
Finding 1-2 1-3 1-4 neighbors ...
  special bond factors lj:    0        1        1       
  special bond factors coul:  0        1        1       
     2 = max # of 1-2 neighbors
     2 = max # of special neighbors
  special bonds CPU = 0.000 seconds
create_bonds single/bond 2 12 13
Finding 1-2 1-3 1-4 neighbors ...
  special bond factors lj:    0        1        1       
  special bond factors coul:  0        1        1       
     2 = max # of 1-2 neighbors
     2 = max # of special neighbors
  special bonds CPU = 0.000 seconds
create_bonds single/bond 2 13 14
Finding 1-2 1-3 1-4 neighbors ...
  special bond factors lj:    0        1        1       
  special bond factors coul:  0        1        1       
     2 = max # of 1-2 neighbors
     2 = max # of special neighbors
  special bonds CPU = 0.000 seconds
create_bonds single/bond 2 14 15
Finding 1-2 1-3 1-4 neighbors ...
  special bond factors lj:    0        1        1       
  special bond factors coul:  0        1        1       
     2 = max # of 1-2 neighbors
     2 = max # of special neighbors
  special bonds CPU = 0.000 seconds
create_bonds single/bond 2 15 16
Finding 1-2 1-3 1-4 neighbors ...
  special bond factors lj:    0        1        1       
  special bond factors coul:  0        1        1       
     2 = max # of 1-2 neighbors
     2 = max # of special neighbors
  special bonds CPU = 0.000 seconds
create_bonds single/bond 2 16 17
Finding 1-2 1-3 1-4 neighbors ...
  special bond factors lj:    0        1        1       
  special bond factors coul:  0        1        1       
     2 = max # of 1-2 neighbors
     2 = max # of special neighbors
  special bonds CPU = 0.000 seconds
create_bonds single/bond 2 17 18
Finding 1-2 1-3 1-4 neighbors ...
  special bond factors lj:    0        1        1       
  special bond factors coul:  0        1        1       
     2 = max # of 1-2 neighbors
     2 = max # of special neighbors
  special bonds CPU = 0.000 seconds
create_bonds single/bond 2 18 19
Finding 1-2 1-3 1-4 neighbors ...
  special bond factors lj:    0        1        1       
  special bond factors coul:  0        1        1       
     2 = max # of 1-2 neighbors
     2 = max # of special neighbors
  special bonds CPU = 0.000 seconds
create_bonds single/bond 2 19 20
Finding 1-2 1-3 1-4 neighbors ...
  special bond factors lj:    0        1        1       
  special bond factors coul:  0        1        1       
     2 = max # of 1-2 neighbors
     2 = max # of special neighbors
  special bonds CPU = 0.000 seconds
angle_coeff 2 0.000867857142857143
include angles_2.txt
create_bonds single/angle 2 11 12 13
Finding 1-2 1-3 1-4 neighbors ...
  special bond factors lj:    0        1        1       
  special bond factors coul:  0        1        1       
     2 = max # of 1-2 neighbors
     2 = max # of special neighbors
  special bonds CPU = 0.000 seconds
create_bonds single/angle 2 12 13 14
Finding 1-2 1-3 1-4 neighbors ...
  special bond factors lj:    0        1        1       
  special bond factors coul:  0        1        1       
     2 = max # of 1-2 neighbors
     2 = max # of special neighbors
  special bonds CPU = 0.000 seconds
create_bonds single/angle 2 13 14 15
Finding 1-2 1-3 1-4 neighbors ...
  special bond factors lj:    0        1        1       
  special bond factors coul:  0        1        1       
     2 = max # of 1-2 neighbors
     2 = max # of special neighbors
  special bonds CPU = 0.000 seconds
create_bonds single/angle 2 14 15 16
Finding 1-2 1-3 1-4 neighbors ...
  special bond factors lj:    0        1        1       
  special bond factors coul:  0        1        1       
     2 = max # of 1-2 neighbors
     2 = max # of special neighbors
  special bonds CPU = 0.000 seconds
create_bonds single/angle 2 15 16 17
Finding 1-2 1-3 1-4 neighbors ...
  special bond factors lj:    0        1        1       
  special bond factors coul:  0        1        1       
     2 = max # of 1-2 neighbors
     2 = max # of special neighbors
  special bonds CPU = 0.000 seconds
create_bonds single/angle 2 16 17 18
Finding 1-2 1-3 1-4 neighbors ...
  special bond factors lj:    0        1        1       
  special bond factors coul:  0        1        1       
     2 = max # of 1-2 neighbors
     2 = max # of special neighbors
  special bonds CPU = 0.000 seconds
create_bonds single/angle 2 17 18 19
Finding 1-2 1-3 1-4 neighbors ...
  special bond factors lj:    0        1        1       
  special bond factors coul:  0        1        1       
     2 = max # of 1-2 neighbors
     2 = max # of special neighbors
  special bonds CPU = 0.000 seconds
create_bonds single/angle 2 18 19 20
Finding 1-2 1-3 1-4 neighbors ...
  special bond factors lj:    0        1        1       
  special bond factors coul:  0        1        1       
     2 = max # of 1-2 neighbors
     2 = max # of special neighbors
  special bonds CPU = 0.000 seconds

include beam_3.txt
create_atoms 3 single -0.04 0.0 -0.0035
Created 1 atoms
  using lattice units in orthogonal box = (-0.05 -0.015 -0.05) to (0.05 0.015 0.05)
  create_atoms CPU = 0.000 seconds
create_atoms 3 single -0.04 0.0 -0.0027222222222222222
Created 1 atoms
  using lattice units in orthogonal box = (-0.05 -0.015 -0.05) to (0.05 0.015 0.05)
  create_atoms CPU = 0.000 seconds
create_atoms 3 single -0.04 0.0 -0.0019444444444444444
Created 1 atoms
  using lattice units in orthogonal box = (-0.05 -0.015 -0.05) to (0.05 0.015 0.05)
  create_atoms CPU = 0.000 seconds
create_atoms 3 single -0.04 0.0 -0.0011666666666666665
Created 1 atoms
  using lattice units in orthogonal box = (-0.05 -0.015 -0.05) to (0.05 0.015 0.05)
  create_atoms CPU = 0.000 seconds
create_atoms 3 single -0.04 0.0 -0.0003888888888888887
Created 1 atoms
  using lattice units in orthogonal box = (-0.05 -0.015 -0.05) to (0.05 0.015 0.05)
  create_atoms CPU = 0.000 seconds
create_atoms 3 single -0.04 0.0 0.00038888888888888914
Created 1 atoms
  using lattice units in orthogonal box = (-0.05 -0.015 -0.05) to (0.05 0.015 0.05)
  create_atoms CPU = 0.000 seconds
create_atoms 3 single -0.04 0.0 0.001166666666666667
Created 1 atoms
  using lattice units in orthogonal box = (-0.05 -0.015 -0.05) to (0.05 0.015 0.05)
  create_atoms CPU = 0.000 seconds
create_atoms 3 single -0.04 0.0 0.0019444444444444444
Created 1 atoms
  using lattice units in orthogonal box = (-0.05 -0.015 -0.05) to (0.05 0.015 0.05)
  create_atoms CPU = 0.000 seconds
create_atoms 3 single -0.04 0.0 0.0027222222222222227
Created 1 atoms
  using lattice units in orthogonal box = (-0.05 -0.015 -0.05) to (0.05 0.015 0.05)
  create_atoms CPU = 0.000 seconds
create_atoms 3 single -0.04 0.0 0.0035
Created 1 atoms
  using lattice units in orthogonal box = (-0.05 -0.015 -0.05) to (0.05 0.015 0.05)
  create_atoms CPU = 0.000 seconds
set type 3 diameter 0.003
Setting atom values ...
  10 settings made for diameter
set type 3 density 0.01
Setting atom values ...
  10 settings made for density
bond_coeff 3 578.5714285714286 0.0007777777777777778
include bonds_3.txt
create_bonds single/bond 3 21 22
Finding 1-2 1-3 1-4 neighbors ...
  special bond factors lj:    0        1        1       
  special bond factors coul:  0        1        1       
     2 = max # of 1-2 neighbors
     2 = max # of special neighbors
  special bonds CPU = 0.000 seconds
create_bonds single/bond 3 22 23
Finding 1-2 1-3 1-4 neighbors ...
  special bond factors lj:    0        1        1       
  special bond factors coul:  0        1        1       
     2 = max # of 1-2 neighbors
     2 = max # of special neighbors
  special bonds CPU = 0.000 seconds
create_bonds single/bond 3 23 24
Finding 1-2 1-3 1-4 neighbors ...
  special bond factors lj:    0        1        1       
  special bond factors coul:  0        1        1       
     2 = max # of 1-2 neighbors
     2 = max # of special neighbors
  special bonds CPU = 0.000 seconds
create_bonds single/bond 3 24 25
Finding 1-2 1-3 1-4 neighbors ...
  special bond factors lj:    0        1        1       
  special bond factors coul:  0        1        1       
     2 = max # of 1-2 neighbors
     2 = max # of special neighbors
  special bonds CPU = 0.000 seconds
create_bonds single/bond 3 25 26
Finding 1-2 1-3 1-4 neighbors ...
  special bond factors lj:    0        1        1       
  special bond factors coul:  0        1        1       
     2 = max # of 1-2 neighbors
     2 = max # of special neighbors
  special bonds CPU = 0.000 seconds
create_bonds single/bond 3 26 27
Finding 1-2 1-3 1-4 neighbors ...
  special bond factors lj:    0        1        1       
  special bond factors coul:  0        1        1       
     2 = max # of 1-2 neighbors
     2 = max # of special neighbors
  special bonds CPU = 0.000 seconds
create_bonds single/bond 3 27 28
Finding 1-2 1-3 1-4 neighbors ...
  special bond factors lj:    0        1        1       
  special bond factors coul:  0        1        1       
     2 = max # of 1-2 neighbors
     2 = max # of special neighbors
  special bonds CPU = 0.000 seconds
create_bonds single/bond 3 28 29
Finding 1-2 1-3 1-4 neighbors ...
  special bond factors lj:    0        1        1       
  special bond factors coul:  0        1        1       
     2 = max # of 1-2 neighbors
     2 = max # of special neighbors
  special bonds CPU = 0.000 seconds
create_bonds single/bond 3 29 30
Finding 1-2 1-3 1-4 neighbors ...
  special bond factors lj:    0        1        1       
  special bond factors coul:  0        1        1       
     2 = max # of 1-2 neighbors
     2 = max # of special neighbors
  special bonds CPU = 0.000 seconds
angle_coeff 3 0.0008678571428571429
include angles_3.txt
create_bonds single/angle 3 21 22 23
Finding 1-2 1-3 1-4 neighbors ...
  special bond factors lj:    0        1        1       
  special bond factors coul:  0        1        1       
     2 = max # of 1-2 neighbors
     2 = max # of special neighbors
  special bonds CPU = 0.000 seconds
create_bonds single/angle 3 22 23 24
Finding 1-2 1-3 1-4 neighbors ...
  special bond factors lj:    0        1        1       
  special bond factors coul:  0        1        1       
     2 = max # of 1-2 neighbors
     2 = max # of special neighbors
  special bonds CPU = 0.000 seconds
create_bonds single/angle 3 23 24 25
Finding 1-2 1-3 1-4 neighbors ...
  special bond factors lj:    0        1        1       
  special bond factors coul:  0        1        1       
     2 = max # of 1-2 neighbors
     2 = max # of special neighbors
  special bonds CPU = 0.000 seconds
create_bonds single/angle 3 24 25 26
Finding 1-2 1-3 1-4 neighbors ...
  special bond factors lj:    0        1        1       
  special bond factors coul:  0        1        1       
     2 = max # of 1-2 neighbors
     2 = max # of special neighbors
  special bonds CPU = 0.000 seconds
create_bonds single/angle 3 25 26 27
Finding 1-2 1-3 1-4 neighbors ...
  special bond factors lj:    0        1        1       
  special bond factors coul:  0        1        1       
     2 = max # of 1-2 neighbors
     2 = max # of special neighbors
  special bonds CPU = 0.000 seconds
create_bonds single/angle 3 26 27 28
Finding 1-2 1-3 1-4 neighbors ...
  special bond factors lj:    0        1        1       
  special bond factors coul:  0        1        1       
     2 = max # of 1-2 neighbors
     2 = max # of special neighbors
  special bonds CPU = 0.000 seconds
create_bonds single/angle 3 27 28 29
Finding 1-2 1-3 1-4 neighbors ...
  special bond factors lj:    0        1        1       
  special bond factors coul:  0        1        1       
     2 = max # of 1-2 neighbors
     2 = max # of special neighbors
  special bonds CPU = 0.000 seconds
create_bonds single/angle 3 28 29 30
Finding 1-2 1-3 1-4 neighbors ...
  special bond factors lj:    0        1        1       
  special bond factors coul:  0        1        1       
     2 = max # of 1-2 neighbors
     2 = max # of special neighbors
  special bonds CPU = 0.000 seconds

include beam_4.txt
create_atoms 4 single -0.04 0.0 0.016499999999999997
Created 1 atoms
  using lattice units in orthogonal box = (-0.05 -0.015 -0.05) to (0.05 0.015 0.05)
  create_atoms CPU = 0.000 seconds
create_atoms 4 single -0.04 0.0 0.017277777777777774
Created 1 atoms
  using lattice units in orthogonal box = (-0.05 -0.015 -0.05) to (0.05 0.015 0.05)
  create_atoms CPU = 0.000 seconds
create_atoms 4 single -0.04 0.0 0.018055555555555554
Created 1 atoms
  using lattice units in orthogonal box = (-0.05 -0.015 -0.05) to (0.05 0.015 0.05)
  create_atoms CPU = 0.000 seconds
create_atoms 4 single -0.04 0.0 0.01883333333333333
Created 1 atoms
  using lattice units in orthogonal box = (-0.05 -0.015 -0.05) to (0.05 0.015 0.05)
  create_atoms CPU = 0.000 seconds
create_atoms 4 single -0.04 0.0 0.019611111111111107
Created 1 atoms
  using lattice units in orthogonal box = (-0.05 -0.015 -0.05) to (0.05 0.015 0.05)
  create_atoms CPU = 0.000 seconds
create_atoms 4 single -0.04 0.0 0.020388888888888887
Created 1 atoms
  using lattice units in orthogonal box = (-0.05 -0.015 -0.05) to (0.05 0.015 0.05)
  create_atoms CPU = 0.000 seconds
create_atoms 4 single -0.04 0.0 0.021166666666666663
Created 1 atoms
  using lattice units in orthogonal box = (-0.05 -0.015 -0.05) to (0.05 0.015 0.05)
  create_atoms CPU = 0.000 seconds
create_atoms 4 single -0.04 0.0 0.02194444444444444
Created 1 atoms
  using lattice units in orthogonal box = (-0.05 -0.015 -0.05) to (0.05 0.015 0.05)
  create_atoms CPU = 0.000 seconds
create_atoms 4 single -0.04 0.0 0.02272222222222222
Created 1 atoms
  using lattice units in orthogonal box = (-0.05 -0.015 -0.05) to (0.05 0.015 0.05)
  create_atoms CPU = 0.000 seconds
create_atoms 4 single -0.04 0.0 0.023499999999999997
Created 1 atoms
  using lattice units in orthogonal box = (-0.05 -0.015 -0.05) to (0.05 0.015 0.05)
  create_atoms CPU = 0.000 seconds
set type 4 diameter 0.003
Setting atom values ...
  10 settings made for diameter
set type 4 density 0.01
Setting atom values ...
  10 settings made for density
bond_coeff 4 578.5714285714287 0.0007777777777777777
include bonds_4.txt
create_bonds single/bond 4 31 32
Finding 1-2 1-3 1-4 neighbors ...
  special bond factors lj:    0        1        1       
  special bond factors coul:  0        1        1       
     2 = max # of 1-2 neighbors
     2 = max # of special neighbors
  special bonds CPU = 0.000 seconds
create_bonds single/bond 4 32 33
Finding 1-2 1-3 1-4 neighbors ...
  special bond factors lj:    0        1        1       
  special bond factors coul:  0        1        1       
     2 = max # of 1-2 neighbors
     2 = max # of special neighbors
  special bonds CPU = 0.000 seconds
create_bonds single/bond 4 33 34
Finding 1-2 1-3 1-4 neighbors ...
  special bond factors lj:    0        1        1       
  special bond factors coul:  0        1        1       
     2 = max # of 1-2 neighbors
     2 = max # of special neighbors
  special bonds CPU = 0.000 seconds
create_bonds single/bond 4 34 35
Finding 1-2 1-3 1-4 neighbors ...
  special bond factors lj:    0        1        1       
  special bond factors coul:  0        1        1       
     2 = max # of 1-2 neighbors
     2 = max # of special neighbors
  special bonds CPU = 0.006 seconds
create_bonds single/bond 4 35 36
Finding 1-2 1-3 1-4 neighbors ...
  special bond factors lj:    0        1        1       
  special bond factors coul:  0        1        1       
     2 = max # of 1-2 neighbors
     2 = max # of special neighbors
  special bonds CPU = 0.000 seconds
create_bonds single/bond 4 36 37
Finding 1-2 1-3 1-4 neighbors ...
  special bond factors lj:    0        1        1       
  special bond factors coul:  0        1        1       
     2 = max # of 1-2 neighbors
     2 = max # of special neighbors
  special bonds CPU = 0.000 seconds
create_bonds single/bond 4 37 38
Finding 1-2 1-3 1-4 neighbors ...
  special bond factors lj:    0        1        1       
  special bond factors coul:  0        1        1       
     2 = max # of 1-2 neighbors
     2 = max # of special neighbors
  special bonds CPU = 0.000 seconds
create_bonds single/bond 4 38 39
Finding 1-2 1-3 1-4 neighbors ...
  special bond factors lj:    0        1        1       
  special bond factors coul:  0        1        1       
     2 = max # of 1-2 neighbors
     2 = max # of special neighbors
  special bonds CPU = 0.000 seconds
create_bonds single/bond 4 39 40
Finding 1-2 1-3 1-4 neighbors ...
  special bond factors lj:    0        1        1       
  special bond factors coul:  0        1        1       
     2 = max # of 1-2 neighbors
     2 = max # of special neighbors
  special bonds CPU = 0.000 seconds
angle_coeff 4 0.000867857142857143
include angles_4.txt
create_bonds single/angle 4 31 32 33
Finding 1-2 1-3 1-4 neighbors ...
  special bond factors lj:    0        1        1       
  special bond factors coul:  0        1        1       
     2 = max # of 1-2 neighbors
     2 = max # of special neighbors
  special bonds CPU = 0.000 seconds
create_bonds single/angle 4 32 33 34
Finding 1-2 1-3 1-4 neighbors ...
  special bond factors lj:    0        1        1       
  special bond factors coul:  0        1        1       
     2 = max # of 1-2 neighbors
     2 = max # of special neighbors
  special bonds CPU = 0.000 seconds
create_bonds single/angle 4 33 34 35
Finding 1-2 1-3 1-4 neighbors ...
  special bond factors lj:    0        1        1       
  special bond factors coul:  0        1        1       
     2 = max # of 1-2 neighbors
     2 = max # of special neighbors
  special bonds CPU = 0.000 seconds
create_bonds single/angle 4 34 35 36
Finding 1-2 1-3 1-4 neighbors ...
  special bond factors lj:    0        1        1       
  special bond factors coul:  0        1        1       
     2 = max # of 1-2 neighbors
     2 = max # of special neighbors
  special bonds CPU = 0.000 seconds
create_bonds single/angle 4 35 36 37
Finding 1-2 1-3 1-4 neighbors ...
  special bond factors lj:    0        1        1       
  special bond factors coul:  0        1        1       
     2 = max # of 1-2 neighbors
     2 = max # of special neighbors
  special bonds CPU = 0.000 seconds
create_bonds single/angle 4 36 37 38
Finding 1-2 1-3 1-4 neighbors ...
  special bond factors lj:    0        1        1       
  special bond factors coul:  0        1        1       
     2 = max # of 1-2 neighbors
     2 = max # of special neighbors
  special bonds CPU = 0.000 seconds
create_bonds single/angle 4 37 38 39
Finding 1-2 1-3 1-4 neighbors ...
  special bond factors lj:    0        1        1       
  special bond factors coul:  0        1        1       
     2 = max # of 1-2 neighbors
     2 = max # of special neighbors
  special bonds CPU = 0.000 seconds
create_bonds single/angle 4 38 39 40
Finding 1-2 1-3 1-4 neighbors ...
  special bond factors lj:    0        1        1       
  special bond factors coul:  0        1        1       
     2 = max # of 1-2 neighbors
     2 = max # of special neighbors
  special bonds CPU = 0.000 seconds

include beam_5.txt
create_atoms 5 single -0.04 0.0 0.0365
Created 1 atoms
  using lattice units in orthogonal box = (-0.05 -0.015 -0.05) to (0.05 0.015 0.05)
  create_atoms CPU = 0.000 seconds
create_atoms 5 single -0.04 0.0 0.03727777777777778
Created 1 atoms
  using lattice units in orthogonal box = (-0.05 -0.015 -0.05) to (0.05 0.015 0.05)
  create_atoms CPU = 0.000 seconds
create_atoms 5 single -0.04 0.0 0.03805555555555556
Created 1 atoms
  using lattice units in orthogonal box = (-0.05 -0.015 -0.05) to (0.05 0.015 0.05)
  create_atoms CPU = 0.000 seconds
create_atoms 5 single -0.04 0.0 0.03883333333333333
Created 1 atoms
  using lattice units in orthogonal box = (-0.05 -0.015 -0.05) to (0.05 0.015 0.05)
  create_atoms CPU = 0.000 seconds
create_atoms 5 single -0.04 0.0 0.03961111111111111
Created 1 atoms
  using lattice units in orthogonal box = (-0.05 -0.015 -0.05) to (0.05 0.015 0.05)
  create_atoms CPU = 0.000 seconds
create_atoms 5 single -0.04 0.0 0.04038888888888889
Created 1 atoms
  using lattice units in orthogonal box = (-0.05 -0.015 -0.05) to (0.05 0.015 0.05)
  create_atoms CPU = 0.000 seconds
create_atoms 5 single -0.04 0.0 0.04116666666666667
Created 1 atoms
  using lattice units in orthogonal box = (-0.05 -0.015 -0.05) to (0.05 0.015 0.05)
  create_atoms CPU = 0.000 seconds
create_atoms 5 single -0.04 0.0 0.04194444444444445
Created 1 atoms
  using lattice units in orthogonal box = (-0.05 -0.015 -0.05) to (0.05 0.015 0.05)
  create_atoms CPU = 0.000 seconds
create_atoms 5 single -0.04 0.0 0.042722222222222224
Created 1 atoms
  using lattice units in orthogonal box = (-0.05 -0.015 -0.05) to (0.05 0.015 0.05)
  create_atoms CPU = 0.000 seconds
create_atoms 5 single -0.04 0.0 0.043500000000000004
Created 1 atoms
  using lattice units in orthogonal box = (-0.05 -0.015 -0.05) to (0.05 0.015 0.05)
  create_atoms CPU = 0.000 seconds
set type 5 diameter 0.003
Setting atom values ...
  10 settings made for diameter
set type 5 density 0.01
Setting atom values ...
  10 settings made for density
bond_coeff 5 578.5714285714281 0.0007777777777777785
include bonds_5.txt
create_bonds single/bond 5 41 42
Finding 1-2 1-3 1-4 neighbors ...
  special bond factors lj:    0        1        1       
  special bond factors coul:  0        1        1       
     2 = max # of 1-2 neighbors
     2 = max # of special neighbors
  special bonds CPU = 0.000 seconds
create_bonds single/bond 5 42 43
Finding 1-2 1-3 1-4 neighbors ...
  special bond factors lj:    0        1        1       
  special bond factors coul:  0        1        1       
     2 = max # of 1-2 neighbors
     2 = max # of special neighbors
  special bonds CPU = 0.000 seconds
create_bonds single/bond 5 43 44
Finding 1-2 1-3 1-4 neighbors ...
  special bond factors lj:    0        1        1       
  special bond factors coul:  0        1        1       
     2 = max # of 1-2 neighbors
     2 = max # of special neighbors
  special bonds CPU = 0.000 seconds
create_bonds single/bond 5 44 45
Finding 1-2 1-3 1-4 neighbors ...
  special bond factors lj:    0        1        1       
  special bond factors coul:  0        1        1       
     2 = max # of 1-2 neighbors
     2 = max # of special neighbors
  special bonds CPU = 0.000 seconds
create_bonds single/bond 5 45 46
Finding 1-2 1-3 1-4 neighbors ...
  special bond factors lj:    0        1        1       
  special bond factors coul:  0        1        1       
     2 = max # of 1-2 neighbors
     2 = max # of special neighbors
  special bonds CPU = 0.000 seconds
create_bonds single/bond 5 46 47
Finding 1-2 1-3 1-4 neighbors ...
  special bond factors lj:    0        1        1       
  special bond factors coul:  0        1        1       
     2 = max # of 1-2 neighbors
     2 = max # of special neighbors
  special bonds CPU = 0.000 seconds
create_bonds single/bond 5 47 48
Finding 1-2 1-3 1-4 neighbors ...
  special bond factors lj:    0        1        1       
  special bond factors coul:  0        1        1       
     2 = max # of 1-2 neighbors
     2 = max # of special neighbors
  special bonds CPU = 0.000 seconds
create_bonds single/bond 5 48 49
Finding 1-2 1-3 1-4 neighbors ...
  special bond factors lj:    0        1        1       
  special bond factors coul:  0        1        1       
     2 = max # of 1-2 neighbors
     2 = max # of special neighbors
  special bonds CPU = 0.000 seconds
create_bonds single/bond 5 49 50
Finding 1-2 1-3 1-4 neighbors ...
  special bond factors lj:    0        1        1       
  special bond factors coul:  0        1        1       
     2 = max # of 1-2 neighbors
     2 = max # of special neighbors
  special bonds CPU = 0.000 seconds
angle_coeff 5 0.0008678571428571421
include angles_5.txt
create_bonds single/angle 5 41 42 43
Finding 1-2 1-3 1-4 neighbors ...
  special bond factors lj:    0        1        1       
  special bond factors coul:  0        1        1       
     2 = max # of 1-2 neighbors
     2 = max # of special neighbors
  special bonds CPU = 0.000 seconds
create_bonds single/angle 5 42 43 44
Finding 1-2 1-3 1-4 neighbors ...
  special bond factors lj:    0        1        1       
  special bond factors coul:  0        1        1       
     2 = max # of 1-2 neighbors
     2 = max # of special neighbors
  special bonds CPU = 0.000 seconds
create_bonds single/angle 5 43 44 45
Finding 1-2 1-3 1-4 neighbors ...
  special bond factors lj:    0        1        1       
  special bond factors coul:  0        1        1       
     2 = max # of 1-2 neighbors
     2 = max # of special neighbors
  special bonds CPU = 0.000 seconds
create_bonds single/angle 5 44 45 46
Finding 1-2 1-3 1-4 neighbors ...
  special bond factors lj:    0        1        1       
  special bond factors coul:  0        1        1       
     2 = max # of 1-2 neighbors
     2 = max # of special neighbors
  special bonds CPU = 0.000 seconds
create_bonds single/angle 5 45 46 47
Finding 1-2 1-3 1-4 neighbors ...
  special bond factors lj:    0        1        1       
  special bond factors coul:  0        1        1       
     2 = max # of 1-2 neighbors
     2 = max # of special neighbors
  special bonds CPU = 0.000 seconds
create_bonds single/angle 5 46 47 48
Finding 1-2 1-3 1-4 neighbors ...
  special bond factors lj:    0        1        1       
  special bond factors coul:  0        1        1       
     2 = max # of 1-2 neighbors
     2 = max # of special neighbors
  special bonds CPU = 0.000 seconds
create_bonds single/angle 5 47 48 49
Finding 1-2 1-3 1-4 neighbors ...
  special bond factors lj:    0        1        1       
  special bond factors coul:  0        1        1       
     2 = max # of 1-2 neighbors
     2 = max # of special neighbors
  special bonds CPU = 0.000 seconds
create_bonds single/angle 5 48 49 50
Finding 1-2 1-3 1-4 neighbors ...
  special bond factors lj:    0        1        1       
  special bond factors coul:  0        1        1       
     2 = max # of 1-2 neighbors
     2 = max # of special neighbors
  special bonds CPU = 0.000 seconds

include beam_6.txt
create_atoms 6 single -0.03111111111111111 0.0 -0.043500000000000004
Created 1 atoms
  using lattice units in orthogonal box = (-0.05 -0.015 -0.05) to (0.05 0.015 0.05)
  create_atoms CPU = 0.000 seconds
create_atoms 6 single -0.03111111111111111 0.0 -0.042722222222222224
Created 1 atoms
  using lattice units in orthogonal box = (-0.05 -0.015 -0.05) to (0.05 0.015 0.05)
  create_atoms CPU = 0.000 seconds
create_atoms 6 single -0.03111111111111111 0.0 -0.041944444444444444
Created 1 atoms
  using lattice units in orthogonal box = (-0.05 -0.015 -0.05) to (0.05 0.015 0.05)
  create_atoms CPU = 0.000 seconds
create_atoms 6 single -0.03111111111111111 0.0 -0.04116666666666667
Created 1 atoms
  using lattice units in orthogonal box = (-0.05 -0.015 -0.05) to (0.05 0.015 0.05)
  create_atoms CPU = 0.000 seconds
create_atoms 6 single -0.03111111111111111 0.0 -0.04038888888888889
Created 1 atoms
  using lattice units in orthogonal box = (-0.05 -0.015 -0.05) to (0.05 0.015 0.05)
  create_atoms CPU = 0.000 seconds
create_atoms 6 single -0.03111111111111111 0.0 -0.03961111111111111
Created 1 atoms
  using lattice units in orthogonal box = (-0.05 -0.015 -0.05) to (0.05 0.015 0.05)
  create_atoms CPU = 0.000 seconds
create_atoms 6 single -0.03111111111111111 0.0 -0.03883333333333333
Created 1 atoms
  using lattice units in orthogonal box = (-0.05 -0.015 -0.05) to (0.05 0.015 0.05)
  create_atoms CPU = 0.000 seconds
create_atoms 6 single -0.03111111111111111 0.0 -0.03805555555555555
Created 1 atoms
  using lattice units in orthogonal box = (-0.05 -0.015 -0.05) to (0.05 0.015 0.05)
  create_atoms CPU = 0.000 seconds
create_atoms 6 single -0.03111111111111111 0.0 -0.03727777777777778
Created 1 atoms
  using lattice units in orthogonal box = (-0.05 -0.015 -0.05) to (0.05 0.015 0.05)
  create_atoms CPU = 0.000 seconds
create_atoms 6 single -0.03111111111111111 0.0 -0.0365
Created 1 atoms
  using lattice units in orthogonal box = (-0.05 -0.015 -0.05) to (0.05 0.015 0.05)
  create_atoms CPU = 0.000 seconds
set type 6 diameter 0.003
Setting atom values ...
  10 settings made for diameter
set type 6 density 0.01
Setting atom values ...
  10 settings made for density
bond_coeff 6 578.5714285714281 0.0007777777777777785
include bonds_6.txt
create_bonds single/bond 6 51 52
Finding 1-2 1-3 1-4 neighbors ...
  special bond factors lj:    0        1        1       
  special bond factors coul:  0        1        1       
     2 = max # of 1-2 neighbors
     2 = max # of special neighbors
  special bonds CPU = 0.000 seconds
create_bonds single/bond 6 52 53
Finding 1-2 1-3 1-4 neighbors ...
  special bond factors lj:    0        1        1       
  special bond factors coul:  0        1        1       
     2 = max # of 1-2 neighbors
     2 = max # of special neighbors
  special bonds CPU = 0.000 seconds
create_bonds single/bond 6 53 54
Finding 1-2 1-3 1-4 neighbors ...
  special bond factors lj:    0        1        1       
  special bond factors coul:  0        1        1       
     2 = max # of 1-2 neighbors
     2 = max # of special neighbors
  special bonds CPU = 0.000 seconds
create_bonds single/bond 6 54 55
Finding 1-2 1-3 1-4 neighbors ...
  special bond factors lj:    0        1        1       
  special bond factors coul:  0        1        1       
     2 = max # of 1-2 neighbors
     2 = max # of special neighbors
  special bonds CPU = 0.000 seconds
create_bonds single/bond 6 55 56
Finding 1-2 1-3 1-4 neighbors ...
  special bond factors lj:    0        1        1       
  special bond factors coul:  0        1        1       
     2 = max # of 1-2 neighbors
     2 = max # of special neighbors
  special bonds CPU = 0.000 seconds
create_bonds single/bond 6 56 57
Finding 1-2 1-3 1-4 neighbors ...
  special bond factors lj:    0        1        1       
  special bond factors coul:  0        1        1       
     2 = max # of 1-2 neighbors
     2 = max # of special neighbors
  special bonds CPU = 0.000 seconds
create_bonds single/bond 6 57 58
Finding 1-2 1-3 1-4 neighbors ...
  special bond factors lj:    0        1        1       
  special bond factors coul:  0        1        1       
     2 = max # of 1-2 neighbors
     2 = max # of special neighbors
  special bonds CPU = 0.000 seconds
create_bonds single/bond 6 58 59
Finding 1-2 1-3 1-4 neighbors ...
  special bond factors lj:    0        1        1       
  special bond factors coul:  0        1        1       
     2 = max # of 1-2 neighbors
     2 = max # of special neighbors
  special bonds CPU = 0.000 seconds
create_bonds single/bond 6 59 60
Finding 1-2 1-3 1-4 neighbors ...
  special bond factors lj:    0        1        1       
  special bond factors coul:  0        1        1       
     2 = max # of 1-2 neighbors
     2 = max # of special neighbors
  special bonds CPU = 0.000 seconds
angle_coeff 6 0.0008678571428571421
include angles_6.txt
create_bonds single/angle 6 51 52 53
Finding 1-2 1-3 1-4 neighbors ...
  special bond factors lj:    0        1        1       
  special bond factors coul:  0        1        1       
     2 = max # of 1-2 neighbors
     2 = max # of special neighbors
  special bonds CPU = 0.000 seconds
create_bonds single/angle 6 52 53 54
Finding 1-2 1-3 1-4 neighbors ...
  special bond factors lj:    0        1        1       
  special bond factors coul:  0        1        1       
     2 = max # of 1-2 neighbors
     2 = max # of special neighbors
  special bonds CPU = 0.000 seconds
create_bonds single/angle 6 53 54 55
Finding 1-2 1-3 1-4 neighbors ...
  special bond factors lj:    0        1        1       
  special bond factors coul:  0        1        1       
     2 = max # of 1-2 neighbors
     2 = max # of special neighbors
  special bonds CPU = 0.000 seconds
create_bonds single/angle 6 54 55 56
Finding 1-2 1-3 1-4 neighbors ...
  special bond factors lj:    0        1        1       
  special bond factors coul:  0        1        1       
     2 = max # of 1-2 neighbors
     2 = max # of special neighbors
  special bonds CPU = 0.000 seconds
create_bonds single/angle 6 55 56 57
Finding 1-2 1-3 1-4 neighbors ...
  special bond factors lj:    0        1        1       
  special bond factors coul:  0        1        1       
     2 = max # of 1-2 neighbors
     2 = max # of special neighbors
  special bonds CPU = 0.000 seconds
create_bonds single/angle 6 56 57 58
Finding 1-2 1-3 1-4 neighbors ...
  special bond factors lj:    0        1        1       
  special bond factors coul:  0        1        1       
     2 = max # of 1-2 neighbors
     2 = max # of special neighbors
  special bonds CPU = 0.000 seconds
create_bonds single/angle 6 57 58 59
Finding 1-2 1-3 1-4 neighbors ...
  special bond factors lj:    0        1        1       
  special bond factors coul:  0        1        1       
     2 = max # of 1-2 neighbors
     2 = max # of special neighbors
  special bonds CPU = 0.000 seconds
create_bonds single/angle 6 58 59 60
Finding 1-2 1-3 1-4 neighbors ...
  special bond factors lj:    0        1        1       
  special bond factors coul:  0        1        1       
     2 = max # of 1-2 neighbors
     2 = max # of special neighbors
  special bonds CPU = 0.000 seconds

include beam_7.txt
create_atoms 7 single -0.03111111111111111 0.0 -0.0235
Created 1 atoms
  using lattice units in orthogonal box = (-0.05 -0.015 -0.05) to (0.05 0.015 0.05)
  create_atoms CPU = 0.000 seconds
create_atoms 7 single -0.03111111111111111 0.0 -0.022722222222222224
Created 1 atoms
  using lattice units in orthogonal box = (-0.05 -0.015 -0.05) to (0.05 0.015 0.05)
  create_atoms CPU = 0.000 seconds
create_atoms 7 single -0.03111111111111111 0.0 -0.021944444444444444
Created 1 atoms
  using lattice units in orthogonal box = (-0.05 -0.015 -0.05) to (0.05 0.015 0.05)
  create_atoms CPU = 0.000 seconds
create_atoms 7 single -0.03111111111111111 0.0 -0.021166666666666667
Created 1 atoms
  using lattice units in orthogonal box = (-0.05 -0.015 -0.05) to (0.05 0.015 0.05)
  create_atoms CPU = 0.000 seconds
create_atoms 7 single -0.03111111111111111 0.0 -0.02038888888888889
Created 1 atoms
  using lattice units in orthogonal box = (-0.05 -0.015 -0.05) to (0.05 0.015 0.05)
  create_atoms CPU = 0.000 seconds
create_atoms 7 single -0.03111111111111111 0.0 -0.01961111111111111
Created 1 atoms
  using lattice units in orthogonal box = (-0.05 -0.015 -0.05) to (0.05 0.015 0.05)
  create_atoms CPU = 0.000 seconds
create_atoms 7 single -0.03111111111111111 0.0 -0.018833333333333334
Created 1 atoms
  using lattice units in orthogonal box = (-0.05 -0.015 -0.05) to (0.05 0.015 0.05)
  create_atoms CPU = 0.000 seconds
create_atoms 7 single -0.03111111111111111 0.0 -0.018055555555555557
Created 1 atoms
  using lattice units in orthogonal box = (-0.05 -0.015 -0.05) to (0.05 0.015 0.05)
  create_atoms CPU = 0.000 seconds
create_atoms 7 single -0.03111111111111111 0.0 -0.017277777777777777
Created 1 atoms
  using lattice units in orthogonal box = (-0.05 -0.015 -0.05) to (0.05 0.015 0.05)
  create_atoms CPU = 0.000 seconds
create_atoms 7 single -0.03111111111111111 0.0 -0.0165
Created 1 atoms
  using lattice units in orthogonal box = (-0.05 -0.015 -0.05) to (0.05 0.015 0.05)
  create_atoms CPU = 0.000 seconds
set type 7 diameter 0.003
Setting atom values ...
  10 settings made for diameter
set type 7 density 0.01
Setting atom values ...
  10 settings made for density
bond_coeff 7 578.5714285714287 0.0007777777777777777
include bonds_7.txt
create_bonds single/bond 7 61 62
Finding 1-2 1-3 1-4 neighbors ...
  special bond factors lj:    0        1        1       
  special bond factors coul:  0        1        1       
     2 = max # of 1-2 neighbors
     2 = max # of special neighbors
  special bonds CPU = 0.000 seconds
create_bonds single/bond 7 62 63
Finding 1-2 1-3 1-4 neighbors ...
  special bond factors lj:    0        1        1       
  special bond factors coul:  0        1        1       
     2 = max # of 1-2 neighbors
     2 = max # of special neighbors
  special bonds CPU = 0.000 seconds
create_bonds single/bond 7 63 64
Finding 1-2 1-3 1-4 neighbors ...
  special bond factors lj:    0        1        1       
  special bond factors coul:  0        1        1       
     2 = max # of 1-2 neighbors
     2 = max # of special neighbors
  special bonds CPU = 0.000 seconds
create_bonds single/bond 7 64 65
Finding 1-2 1-3 1-4 neighbors ...
  special bond factors lj:    0        1        1       
  special bond factors coul:  0        1        1       
     2 = max # of 1-2 neighbors
     2 = max # of special neighbors
  special bonds CPU = 0.000 seconds
create_bonds single/bond 7 65 66
Finding 1-2 1-3 1-4 neighbors ...
  special bond factors lj:    0        1        1       
  special bond factors coul:  0        1        1       
     2 = max # of 1-2 neighbors
     2 = max # of special neighbors
  special bonds CPU = 0.000 seconds
create_bonds single/bond 7 66 67
Finding 1-2 1-3 1-4 neighbors ...
  special bond factors lj:    0        1        1       
  special bond factors coul:  0        1        1       
     2 = max # of 1-2 neighbors
     2 = max # of special neighbors
  special bonds CPU = 0.000 seconds
create_bonds single/bond 7 67 68
Finding 1-2 1-3 1-4 neighbors ...
  special bond factors lj:    0        1        1       
  special bond factors coul:  0        1        1       
     2 = max # of 1-2 neighbors
     2 = max # of special neighbors
  special bonds CPU = 0.000 seconds
create_bonds single/bond 7 68 69
Finding 1-2 1-3 1-4 neighbors ...
  special bond factors lj:    0        1        1       
  special bond factors coul:  0        1        1       
     2 = max # of 1-2 neighbors
     2 = max # of special neighbors
  special bonds CPU = 0.000 seconds
create_bonds single/bond 7 69 70
Finding 1-2 1-3 1-4 neighbors ...
  special bond factors lj:    0        1        1       
  special bond factors coul:  0        1        1       
     2 = max # of 1-2 neighbors
     2 = max # of special neighbors
  special bonds CPU = 0.000 seconds
angle_coeff 7 0.000867857142857143
include angles_7.txt
create_bonds single/angle 7 61 62 63
Finding 1-2 1-3 1-4 neighbors ...
  special bond factors lj:    0        1        1       
  special bond factors coul:  0        1        1       
     2 = max # of 1-2 neighbors
     2 = max # of special neighbors
  special bonds CPU = 0.000 seconds
create_bonds single/angle 7 62 63 64
Finding 1-2 1-3 1-4 neighbors ...
  special bond factors lj:    0        1        1       
  special bond factors coul:  0        1        1       
     2 = max # of 1-2 neighbors
     2 = max # of special neighbors
  special bonds CPU = 0.000 seconds
create_bonds single/angle 7 63 64 65
Finding 1-2 1-3 1-4 neighbors ...
  special bond factors lj:    0        1        1       
  special bond factors coul:  0        1        1       
     2 = max # of 1-2 neighbors
     2 = max # of special neighbors
  special bonds CPU = 0.000 seconds
create_bonds single/angle 7 64 65 66
Finding 1-2 1-3 1-4 neighbors ...
  special bond factors lj:    0        1        1       
  special bond factors coul:  0        1        1       
     2 = max # of 1-2 neighbors
     2 = max # of special neighbors
  special bonds CPU = 0.000 seconds
create_bonds single/angle 7 65 66 67
Finding 1-2 1-3 1-4 neighbors ...
  special bond factors lj:    0        1        1       
  special bond factors coul:  0        1        1       
     2 = max # of 1-2 neighbors
     2 = max # of special neighbors
  special bonds CPU = 0.000 seconds
create_bonds single/angle 7 66 67 68
Finding 1-2 1-3 1-4 neighbors ...
  special bond factors lj:    0        1        1       
  special bond factors coul:  0        1        1       
     2 = max # of 1-2 neighbors
     2 = max # of special neighbors
  special bonds CPU = 0.000 seconds
create_bonds single/angle 7 67 68 69
Finding 1-2 1-3 1-4 neighbors ...
  special bond factors lj:    0        1        1       
  special bond factors coul:  0        1        1       
     2 = max # of 1-2 neighbors
     2 = max # of special neighbors
  special bonds CPU = 0.000 seconds
create_bonds single/angle 7 68 69 70
Finding 1-2 1-3 1-4 neighbors ...
  special bond factors lj:    0        1        1       
  special bond factors coul:  0        1        1       
     2 = max # of 1-2 neighbors
     2 = max # of special neighbors
  special bonds CPU = 0.000 seconds

include beam_8.txt
create_atoms 8 single -0.03111111111111111 0.0 -0.0035
Created 1 atoms
  using lattice units in orthogonal box = (-0.05 -0.015 -0.05) to (0.05 0.015 0.05)
  create_atoms CPU = 0.000 seconds
create_atoms 8 single -0.03111111111111111 0.0 -0.0027222222222222222
Created 1 atoms
  using lattice units in orthogonal box = (-0.05 -0.015 -0.05) to (0.05 0.015 0.05)
  create_atoms CPU = 0.000 seconds
create_atoms 8 single -0.03111111111111111 0.0 -0.0019444444444444444
Created 1 atoms
  using lattice units in orthogonal box = (-0.05 -0.015 -0.05) to (0.05 0.015 0.05)
  create_atoms CPU = 0.000 seconds
create_atoms 8 single -0.03111111111111111 0.0 -0.0011666666666666665
Created 1 atoms
  using lattice units in orthogonal box = (-0.05 -0.015 -0.05) to (0.05 0.015 0.05)
  create_atoms CPU = 0.000 seconds
create_atoms 8 single -0.03111111111111111 0.0 -0.0003888888888888887
Created 1 atoms
  using lattice units in orthogonal box = (-0.05 -0.015 -0.05) to (0.05 0.015 0.05)
  create_atoms CPU = 0.000 seconds
create_atoms 8 single -0.03111111111111111 0.0 0.00038888888888888914
Created 1 atoms
  using lattice units in orthogonal box = (-0.05 -0.015 -0.05) to (0.05 0.015 0.05)
  create_atoms CPU = 0.000 seconds
create_atoms 8 single -0.03111111111111111 0.0 0.001166666666666667
Created 1 atoms
  using lattice units in orthogonal box = (-0.05 -0.015 -0.05) to (0.05 0.015 0.05)
  create_atoms CPU = 0.000 seconds
create_atoms 8 single -0.03111111111111111 0.0 0.0019444444444444444
Created 1 atoms
  using lattice units in orthogonal box = (-0.05 -0.015 -0.05) to (0.05 0.015 0.05)
  create_atoms CPU = 0.000 seconds
create_atoms 8 single -0.03111111111111111 0.0 0.0027222222222222227
Created 1 atoms
  using lattice units in orthogonal box = (-0.05 -0.015 -0.05) to (0.05 0.015 0.05)
  create_atoms CPU = 0.000 seconds
create_atoms 8 single -0.03111111111111111 0.0 0.0035
Created 1 atoms
  using lattice units in orthogonal box = (-0.05 -0.015 -0.05) to (0.05 0.015 0.05)
  create_atoms CPU = 0.000 seconds
set type 8 diameter 0.003
Setting atom values ...
  10 settings made for diameter
set type 8 density 0.01
Setting atom values ...
  10 settings made for density
bond_coeff 8 578.5714285714286 0.0007777777777777778
include bonds_8.txt
create_bonds single/bond 8 71 72
Finding 1-2 1-3 1-4 neighbors ...
  special bond factors lj:    0        1        1       
  special bond factors coul:  0        1        1       
     2 = max # of 1-2 neighbors
     2 = max # of special neighbors
  special bonds CPU = 0.000 seconds
create_bonds single/bond 8 72 73
Finding 1-2 1-3 1-4 neighbors ...
  special bond factors lj:    0        1        1       
  special bond factors coul:  0        1        1       
     2 = max # of 1-2 neighbors
     2 = max # of special neighbors
  special bonds CPU = 0.000 seconds
create_bonds single/bond 8 73 74
Finding 1-2 1-3 1-4 neighbors ...
  special bond factors lj:    0        1        1       
  special bond factors coul:  0        1        1       
     2 = max # of 1-2 neighbors
     2 = max # of special neighbors
  special bonds CPU = 0.000 seconds
create_bonds single/bond 8 74 75
Finding 1-2 1-3 1-4 neighbors ...
  special bond factors lj:    0        1        1       
  special bond factors coul:  0        1        1       
     2 = max # of 1-2 neighbors
     2 = max # of special neighbors
  special bonds CPU = 0.000 seconds
create_bonds single/bond 8 75 76
Finding 1-2 1-3 1-4 neighbors ...
  special bond factors lj:    0        1        1       
  special bond factors coul:  0        1        1       
     2 = max # of 1-2 neighbors
     2 = max # of special neighbors
  special bonds CPU = 0.000 seconds
create_bonds single/bond 8 76 77
Finding 1-2 1-3 1-4 neighbors ...
  special bond factors lj:    0        1        1       
  special bond factors coul:  0        1        1       
     2 = max # of 1-2 neighbors
     2 = max # of special neighbors
  special bonds CPU = 0.000 seconds
create_bonds single/bond 8 77 78
Finding 1-2 1-3 1-4 neighbors ...
  special bond factors lj:    0        1        1       
  special bond factors coul:  0        1        1       
     2 = max # of 1-2 neighbors
     2 = max # of special neighbors
  special bonds CPU = 0.000 seconds
create_bonds single/bond 8 78 79
Finding 1-2 1-3 1-4 neighbors ...
  special bond factors lj:    0        1        1       
  special bond factors coul:  0        1        1       
     2 = max # of 1-2 neighbors
     2 = max # of special neighbors
  special bonds CPU = 0.000 seconds
create_bonds single/bond 8 79 80
Finding 1-2 1-3 1-4 neighbors ...
  special bond factors lj:    0        1        1       
  special bond factors coul:  0        1        1       
     2 = max # of 1-2 neighbors
     2 = max # of special neighbors
  special bonds CPU = 0.000 seconds
angle_coeff 8 0.0008678571428571429
include angles_8.txt
create_bonds single/angle 8 71 72 73
Finding 1-2 1-3 1-4 neighbors ...
  special bond factors lj:    0        1        1       
  special bond factors coul:  0        1        1       
     2 = max # of 1-2 neighbors
     2 = max # of special neighbors
  special bonds CPU = 0.000 seconds
create_bonds single/angle 8 72 73 74
Finding 1-2 1-3 1-4 neighbors ...
  special bond factors lj:    0        1        1       
  special bond factors coul:  0        1        1       
     2 = max # of 1-2 neighbors
     2 = max # of special neighbors
  special bonds CPU = 0.000 seconds
create_bonds single/angle 8 73 74 75
Finding 1-2 1-3 1-4 neighbors ...
  special bond factors lj:    0        1        1       
  special bond factors coul:  0        1        1       
     2 = max # of 1-2 neighbors
     2 = max # of special neighbors
  special bonds CPU = 0.000 seconds
create_bonds single/angle 8 74 75 76
Finding 1-2 1-3 1-4 neighbors ...
  special bond factors lj:    0        1        1       
  special bond factors coul:  0        1        1       
     2 = max # of 1-2 neighbors
     2 = max # of special neighbors
  special bonds CPU = 0.000 seconds
create_bonds single/angle 8 75 76 77
Finding 1-2 1-3 1-4 neighbors ...
  special bond factors lj:    0        1        1       
  special bond factors coul:  0        1        1       
     2 = max # of 1-2 neighbors
     2 = max # of special neighbors
  special bonds CPU = 0.000 seconds
create_bonds single/angle 8 76 77 78
Finding 1-2 1-3 1-4 neighbors ...
  special bond factors lj:    0        1        1       
  special bond factors coul:  0        1        1       
     2 = max # of 1-2 neighbors
     2 = max # of special neighbors
  special bonds CPU = 0.000 seconds
create_bonds single/angle 8 77 78 79
Finding 1-2 1-3 1-4 neighbors ...
  special bond factors lj:    0        1        1       
  special bond factors coul:  0        1        1       
     2 = max # of 1-2 neighbors
     2 = max # of special neighbors
  special bonds CPU = 0.000 seconds
create_bonds single/angle 8 78 79 80
Finding 1-2 1-3 1-4 neighbors ...
  special bond factors lj:    0        1        1       
  special bond factors coul:  0        1        1       
     2 = max # of 1-2 neighbors
     2 = max # of special neighbors
  special bonds CPU = 0.000 seconds

include beam_9.txt
create_atoms 9 single -0.03111111111111111 0.0 0.016499999999999997
Created 1 atoms
  using lattice units in orthogonal box = (-0.05 -0.015 -0.05) to (0.05 0.015 0.05)
  create_atoms CPU = 0.000 seconds
create_atoms 9 single -0.03111111111111111 0.0 0.017277777777777774
Created 1 atoms
  using lattice units in orthogonal box = (-0.05 -0.015 -0.05) to (0.05 0.015 0.05)
  create_atoms CPU = 0.000 seconds
create_atoms 9 single -0.03111111111111111 0.0 0.018055555555555554
Created 1 atoms
  using lattice units in orthogonal box = (-0.05 -0.015 -0.05) to (0.05 0.015 0.05)
  create_atoms CPU = 0.000 seconds
create_atoms 9 single -0.03111111111111111 0.0 0.01883333333333333
Created 1 atoms
  using lattice units in orthogonal box = (-0.05 -0.015 -0.05) to (0.05 0.015 0.05)
  create_atoms CPU = 0.000 seconds
create_atoms 9 single -0.03111111111111111 0.0 0.019611111111111107
Created 1 atoms
  using lattice units in orthogonal box = (-0.05 -0.015 -0.05) to (0.05 0.015 0.05)
  create_atoms CPU = 0.000 seconds
create_atoms 9 single -0.03111111111111111 0.0 0.020388888888888887
Created 1 atoms
  using lattice units in orthogonal box = (-0.05 -0.015 -0.05) to (0.05 0.015 0.05)
  create_atoms CPU = 0.000 seconds
create_atoms 9 single -0.03111111111111111 0.0 0.021166666666666663
Created 1 atoms
  using lattice units in orthogonal box = (-0.05 -0.015 -0.05) to (0.05 0.015 0.05)
  create_atoms CPU = 0.000 seconds
create_atoms 9 single -0.03111111111111111 0.0 0.02194444444444444
Created 1 atoms
  using lattice units in orthogonal box = (-0.05 -0.015 -0.05) to (0.05 0.015 0.05)
  create_atoms CPU = 0.000 seconds
create_atoms 9 single -0.03111111111111111 0.0 0.02272222222222222
Created 1 atoms
  using lattice units in orthogonal box = (-0.05 -0.015 -0.05) to (0.05 0.015 0.05)
  create_atoms CPU = 0.000 seconds
create_atoms 9 single -0.03111111111111111 0.0 0.023499999999999997
Created 1 atoms
  using lattice units in orthogonal box = (-0.05 -0.015 -0.05) to (0.05 0.015 0.05)
  create_atoms CPU = 0.000 seconds
set type 9 diameter 0.003
Setting atom values ...
  10 settings made for diameter
set type 9 density 0.01
Setting atom values ...
  10 settings made for density
bond_coeff 9 578.5714285714287 0.0007777777777777777
include bonds_9.txt
create_bonds single/bond 9 81 82
Finding 1-2 1-3 1-4 neighbors ...
  special bond factors lj:    0        1        1       
  special bond factors coul:  0        1        1       
     2 = max # of 1-2 neighbors
     2 = max # of special neighbors
  special bonds CPU = 0.000 seconds
create_bonds single/bond 9 82 83
Finding 1-2 1-3 1-4 neighbors ...
  special bond factors lj:    0        1        1       
  special bond factors coul:  0        1        1       
     2 = max # of 1-2 neighbors
     2 = max # of special neighbors
  special bonds CPU = 0.000 seconds
create_bonds single/bond 9 83 84
Finding 1-2 1-3 1-4 neighbors ...
  special bond factors lj:    0        1        1       
  special bond factors coul:  0        1        1       
     2 = max # of 1-2 neighbors
     2 = max # of special neighbors
  special bonds CPU = 0.000 seconds
create_bonds single/bond 9 84 85
Finding 1-2 1-3 1-4 neighbors ...
  special bond factors lj:    0        1        1       
  special bond factors coul:  0        1        1       
     2 = max # of 1-2 neighbors
     2 = max # of special neighbors
  special bonds CPU = 0.000 seconds
create_bonds single/bond 9 85 86
Finding 1-2 1-3 1-4 neighbors ...
  special bond factors lj:    0        1        1       
  special bond factors coul:  0        1        1       
     2 = max # of 1-2 neighbors
     2 = max # of special neighbors
  special bonds CPU = 0.000 seconds
create_bonds single/bond 9 86 87
Finding 1-2 1-3 1-4 neighbors ...
  special bond factors lj:    0        1        1       
  special bond factors coul:  0        1        1       
     2 = max # of 1-2 neighbors
     2 = max # of special neighbors
  special bonds CPU = 0.000 seconds
create_bonds single/bond 9 87 88
Finding 1-2 1-3 1-4 neighbors ...
  special bond factors lj:    0        1        1       
  special bond factors coul:  0        1        1       
     2 = max # of 1-2 neighbors
     2 = max # of special neighbors
  special bonds CPU = 0.000 seconds
create_bonds single/bond 9 88 89
Finding 1-2 1-3 1-4 neighbors ...
  special bond factors lj:    0        1        1       
  special bond factors coul:  0        1        1       
     2 = max # of 1-2 neighbors
     2 = max # of special neighbors
  special bonds CPU = 0.000 seconds
create_bonds single/bond 9 89 90
Finding 1-2 1-3 1-4 neighbors ...
  special bond factors lj:    0        1        1       
  special bond factors coul:  0        1        1       
     2 = max # of 1-2 neighbors
     2 = max # of special neighbors
  special bonds CPU = 0.000 seconds
angle_coeff 9 0.000867857142857143
include angles_9.txt
create_bonds single/angle 9 81 82 83
Finding 1-2 1-3 1-4 neighbors ...
  special bond factors lj:    0        1        1       
  special bond factors coul:  0        1        1       
     2 = max # of 1-2 neighbors
     2 = max # of special neighbors
  special bonds CPU = 0.000 seconds
create_bonds single/angle 9 82 83 84
Finding 1-2 1-3 1-4 neighbors ...
  special bond factors lj:    0        1        1       
  special bond factors coul:  0        1        1       
     2 = max # of 1-2 neighbors
     2 = max # of special neighbors
  special bonds CPU = 0.000 seconds
create_bonds single/angle 9 83 84 85
Finding 1-2 1-3 1-4 neighbors ...
  special bond factors lj:    0        1        1       
  special bond factors coul:  0        1        1       
     2 = max # of 1-2 neighbors
     2 = max # of special neighbors
  special bonds CPU = 0.000 seconds
create_bonds single/angle 9 84 85 86
Finding 1-2 1-3 1-4 neighbors ...
  special bond factors lj:    0        1        1       
  special bond factors coul:  0        1        1       
     2 = max # of 1-2 neighbors
     2 = max # of special neighbors
  special bonds CPU = 0.000 seconds
create_bonds single/angle 9 85 86 87
Finding 1-2 1-3 1-4 neighbors ...
  special bond factors lj:    0        1        1       
  special bond factors coul:  0        1        1       
     2 = max # of 1-2 neighbors
     2 = max # of special neighbors
  special bonds CPU = 0.000 seconds
create_bonds single/angle 9 86 87 88
Finding 1-2 1-3 1-4 neighbors ...
  special bond factors lj:    0        1        1       
  special bond factors coul:  0        1        1       
     2 = max # of 1-2 neighbors
     2 = max # of special neighbors
  special bonds CPU = 0.000 seconds
create_bonds single/angle 9 87 88 89
Finding 1-2 1-3 1-4 neighbors ...
  special bond factors lj:    0        1        1       
  special bond factors coul:  0        1        1       
     2 = max # of 1-2 neighbors
     2 = max # of special neighbors
  special bonds CPU = 0.000 seconds
create_bonds single/angle 9 88 89 90
Finding 1-2 1-3 1-4 neighbors ...
  special bond factors lj:    0        1        1       
  special bond factors coul:  0        1        1       
     2 = max # of 1-2 neighbors
     2 = max # of special neighbors
  special bonds CPU = 0.000 seconds

include beam_10.txt
create_atoms 10 single -0.03111111111111111 0.0 0.0365
Created 1 atoms
  using lattice units in orthogonal box = (-0.05 -0.015 -0.05) to (0.05 0.015 0.05)
  create_atoms CPU = 0.000 seconds
create_atoms 10 single -0.03111111111111111 0.0 0.03727777777777778
Created 1 atoms
  using lattice units in orthogonal box = (-0.05 -0.015 -0.05) to (0.05 0.015 0.05)
  create_atoms CPU = 0.000 seconds
create_atoms 10 single -0.03111111111111111 0.0 0.03805555555555556
Created 1 atoms
  using lattice units in orthogonal box = (-0.05 -0.015 -0.05) to (0.05 0.015 0.05)
  create_atoms CPU = 0.000 seconds
create_atoms 10 single -0.03111111111111111 0.0 0.03883333333333333
Created 1 atoms
  using lattice units in orthogonal box = (-0.05 -0.015 -0.05) to (0.05 0.015 0.05)
  create_atoms CPU = 0.000 seconds
create_atoms 10 single -0.03111111111111111 0.0 0.03961111111111111
Created 1 atoms
  using lattice units in orthogonal box = (-0.05 -0.015 -0.05) to (0.05 0.015 0.05)
  create_atoms CPU = 0.000 seconds
create_atoms 10 single -0.03111111111111111 0.0 0.04038888888888889
Created 1 atoms
  using lattice units in orthogonal box = (-0.05 -0.015 -0.05) to (0.05 0.015 0.05)
  create_atoms CPU = 0.000 seconds
create_atoms 10 single -0.03111111111111111 0.0 0.04116666666666667
Created 1 atoms
  using lattice units in orthogonal box = (-0.05 -0.015 -0.05) to (0.05 0.015 0.05)
  create_atoms CPU = 0.000 seconds
create_atoms 10 single -0.03111111111111111 0.0 0.04194444444444445
Created 1 atoms
  using lattice units in orthogonal box = (-0.05 -0.015 -0.05) to (0.05 0.015 0.05)
  create_atoms CPU = 0.000 seconds
create_atoms 10 single -0.03111111111111111 0.0 0.042722222222222224
Created 1 atoms
  using lattice units in orthogonal box = (-0.05 -0.015 -0.05) to (0.05 0.015 0.05)
  create_atoms CPU = 0.000 seconds
create_atoms 10 single -0.03111111111111111 0.0 0.043500000000000004
Created 1 atoms
  using lattice units in orthogonal box = (-0.05 -0.015 -0.05) to (0.05 0.015 0.05)
  create_atoms CPU = 0.000 seconds
set type 10 diameter 0.003
Setting atom values ...
  10 settings made for diameter
set type 10 density 0.01
Setting atom values ...
  10 settings made for density
bond_coeff 10 578.5714285714281 0.0007777777777777785
include bonds_10.txt
create_bonds single/bond 10 91 92
Finding 1-2 1-3 1-4 neighbors ...
  special bond factors lj:    0        1        1       
  special bond factors coul:  0        1        1       
     2 = max # of 1-2 neighbors
     2 = max # of special neighbors
  special bonds CPU = 0.000 seconds
create_bonds single/bond 10 92 93
Finding 1-2 1-3 1-4 neighbors ...
  special bond factors lj:    0        1        1       
  special bond factors coul:  0        1        1       
     2 = max # of 1-2 neighbors
     2 = max # of special neighbors
  special bonds CPU = 0.000 seconds
create_bonds single/bond 10 93 94
Finding 1-2 1-3 1-4 neighbors ...
  special bond factors lj:    0        1        1       
  special bond factors coul:  0        1        1       
     2 = max # of 1-2 neighbors
     2 = max # of special neighbors
  special bonds CPU = 0.000 seconds
create_bonds single/bond 10 94 95
Finding 1-2 1-3 1-4 neighbors ...
  special bond factors lj:    0        1        1       
  special bond factors coul:  0        1        1       
     2 = max # of 1-2 neighbors
     2 = max # of special neighbors
  special bonds CPU = 0.000 seconds
create_bonds single/bond 10 95 96
Finding 1-2 1-3 1-4 neighbors ...
  special bond factors lj:    0        1        1       
  special bond factors coul:  0        1        1       
     2 = max # of 1-2 neighbors
     2 = max # of special neighbors
  special bonds CPU = 0.000 seconds
create_bonds single/bond 10 96 97
Finding 1-2 1-3 1-4 neighbors ...
  special bond factors lj:    0        1        1       
  special bond factors coul:  0        1        1       
     2 = max # of 1-2 neighbors
     2 = max # of special neighbors
  special bonds CPU = 0.000 seconds
create_bonds single/bond 10 97 98
Finding 1-2 1-3 1-4 neighbors ...
  special bond factors lj:    0        1        1       
  special bond factors coul:  0        1        1       
     2 = max # of 1-2 neighbors
     2 = max # of special neighbors
  special bonds CPU = 0.000 seconds
create_bonds single/bond 10 98 99
Finding 1-2 1-3 1-4 neighbors ...
  special bond factors lj:    0        1        1       
  special bond factors coul:  0        1        1       
     2 = max # of 1-2 neighbors
     2 = max # of special neighbors
  special bonds CPU = 0.000 seconds
create_bonds single/bond 10 99 100
Finding 1-2 1-3 1-4 neighbors ...
  special bond factors lj:    0        1        1       
  special bond factors coul:  0        1        1       
     2 = max # of 1-2 neighbors
     2 = max # of special neighbors
  special bonds CPU = 0.000 seconds
angle_coeff 10 0.0008678571428571421
include angles_10.txt
create_bonds single/angle 10 91 92 93
Finding 1-2 1-3 1-4 neighbors ...
  special bond factors lj:    0        1        1       
  special bond factors coul:  0        1        1       
     2 = max # of 1-2 neighbors
     2 = max # of special neighbors
  special bonds CPU = 0.000 seconds
create_bonds single/angle 10 92 93 94
Finding 1-2 1-3 1-4 neighbors ...
  special bond factors lj:    0        1        1       
  special bond factors coul:  0        1        1       
     2 = max # of 1-2 neighbors
     2 = max # of special neighbors
  special bonds CPU = 0.000 seconds
create_bonds single/angle 10 93 94 95
Finding 1-2 1-3 1-4 neighbors ...
  special bond factors lj:    0        1        1       
  special bond factors coul:  0        1        1       
     2 = max # of 1-2 neighbors
     2 = max # of special neighbors
  special bonds CPU = 0.000 seconds
create_bonds single/angle 10 94 95 96
Finding 1-2 1-3 1-4 neighbors ...
  special bond factors lj:    0        1        1       
  special bond factors coul:  0        1        1       
     2 = max # of 1-2 neighbors
     2 = max # of special neighbors
  special bonds CPU = 0.000 seconds
create_bonds single/angle 10 95 96 97
Finding 1-2 1-3 1-4 neighbors ...
  special bond factors lj:    0        1        1       
  special bond factors coul:  0        1        1       
     2 = max # of 1-2 neighbors
     2 = max # of special neighbors
  special bonds CPU = 0.000 seconds
create_bonds single/angle 10 96 97 98
Finding 1-2 1-3 1-4 neighbors ...
  special bond factors lj:    0        1        1       
  special bond factors coul:  0        1        1       
     2 = max # of 1-2 neighbors
     2 = max # of special neighbors
  special bonds CPU = 0.000 seconds
create_bonds single/angle 10 97 98 99
Finding 1-2 1-3 1-4 neighbors ...
  special bond factors lj:    0        1        1       
  special bond factors coul:  0        1        1       
     2 = max # of 1-2 neighbors
     2 = max # of special neighbors
  special bonds CPU = 0.000 seconds
create_bonds single/angle 10 98 99 100
Finding 1-2 1-3 1-4 neighbors ...
  special bond factors lj:    0        1        1       
  special bond factors coul:  0        1        1       
     2 = max # of 1-2 neighbors
     2 = max # of special neighbors
  special bonds CPU = 0.000 seconds

include beam_11.txt
create_atoms 11 single -0.022222222222222223 0.0 -0.043500000000000004
Created 1 atoms
  using lattice units in orthogonal box = (-0.05 -0.015 -0.05) to (0.05 0.015 0.05)
  create_atoms CPU = 0.000 seconds
create_atoms 11 single -0.022222222222222223 0.0 -0.042722222222222224
Created 1 atoms
  using lattice units in orthogonal box = (-0.05 -0.015 -0.05) to (0.05 0.015 0.05)
  create_atoms CPU = 0.000 seconds
create_atoms 11 single -0.022222222222222223 0.0 -0.041944444444444444
Created 1 atoms
  using lattice units in orthogonal box = (-0.05 -0.015 -0.05) to (0.05 0.015 0.05)
  create_atoms CPU = 0.000 seconds
create_atoms 11 single -0.022222222222222223 0.0 -0.04116666666666667
Created 1 atoms
  using lattice units in orthogonal box = (-0.05 -0.015 -0.05) to (0.05 0.015 0.05)
  create_atoms CPU = 0.000 seconds
create_atoms 11 single -0.022222222222222223 0.0 -0.04038888888888889
Created 1 atoms
  using lattice units in orthogonal box = (-0.05 -0.015 -0.05) to (0.05 0.015 0.05)
  create_atoms CPU = 0.000 seconds
create_atoms 11 single -0.022222222222222223 0.0 -0.03961111111111111
Created 1 atoms
  using lattice units in orthogonal box = (-0.05 -0.015 -0.05) to (0.05 0.015 0.05)
  create_atoms CPU = 0.000 seconds
create_atoms 11 single -0.022222222222222223 0.0 -0.03883333333333333
Created 1 atoms
  using lattice units in orthogonal box = (-0.05 -0.015 -0.05) to (0.05 0.015 0.05)
  create_atoms CPU = 0.000 seconds
create_atoms 11 single -0.022222222222222223 0.0 -0.03805555555555555
Created 1 atoms
  using lattice units in orthogonal box = (-0.05 -0.015 -0.05) to (0.05 0.015 0.05)
  create_atoms CPU = 0.000 seconds
create_atoms 11 single -0.022222222222222223 0.0 -0.03727777777777778
Created 1 atoms
  using lattice units in orthogonal box = (-0.05 -0.015 -0.05) to (0.05 0.015 0.05)
  create_atoms CPU = 0.000 seconds
create_atoms 11 single -0.022222222222222223 0.0 -0.0365
Created 1 atoms
  using lattice units in orthogonal box = (-0.05 -0.015 -0.05) to (0.05 0.015 0.05)
  create_atoms CPU = 0.000 seconds
set type 11 diameter 0.003
Setting atom values ...
  10 settings made for diameter
set type 11 density 0.01
Setting atom values ...
  10 settings made for density
bond_coeff 11 578.5714285714281 0.0007777777777777785
include bonds_11.txt
create_bonds single/bond 11 101 102
Finding 1-2 1-3 1-4 neighbors ...
  special bond factors lj:    0        1        1       
  special bond factors coul:  0        1        1       
     2 = max # of 1-2 neighbors
     2 = max # of special neighbors
  special bonds CPU = 0.000 seconds
create_bonds single/bond 11 102 103
Finding 1-2 1-3 1-4 neighbors ...
  special bond factors lj:    0        1        1       
  special bond factors coul:  0        1        1       
     2 = max # of 1-2 neighbors
     2 = max # of special neighbors
  special bonds CPU = 0.000 seconds
create_bonds single/bond 11 103 104
Finding 1-2 1-3 1-4 neighbors ...
  special bond factors lj:    0        1        1       
  special bond factors coul:  0        1        1       
     2 = max # of 1-2 neighbors
     2 = max # of special neighbors
  special bonds CPU = 0.000 seconds
create_bonds single/bond 11 104 105
Finding 1-2 1-3 1-4 neighbors ...
  special bond factors lj:    0        1        1       
  special bond factors coul:  0        1        1       
     2 = max # of 1-2 neighbors
     2 = max # of special neighbors
  special bonds CPU = 0.000 seconds
create_bonds single/bond 11 105 106
Finding 1-2 1-3 1-4 neighbors ...
  special bond factors lj:    0        1        1       
  special bond factors coul:  0        1        1       
     2 = max # of 1-2 neighbors
     2 = max # of special neighbors
  special bonds CPU = 0.000 seconds
create_bonds single/bond 11 106 107
Finding 1-2 1-3 1-4 neighbors ...
  special bond factors lj:    0        1        1       
  special bond factors coul:  0        1        1       
     2 = max # of 1-2 neighbors
     2 = max # of special neighbors
  special bonds CPU = 0.000 seconds
create_bonds single/bond 11 107 108
Finding 1-2 1-3 1-4 neighbors ...
  special bond factors lj:    0        1        1       
  special bond factors coul:  0        1        1       
     2 = max # of 1-2 neighbors
     2 = max # of special neighbors
  special bonds CPU = 0.000 seconds
create_bonds single/bond 11 108 109
Finding 1-2 1-3 1-4 neighbors ...
  special bond factors lj:    0        1        1       
  special bond factors coul:  0        1        1       
     2 = max # of 1-2 neighbors
     2 = max # of special neighbors
  special bonds CPU = 0.000 seconds
create_bonds single/bond 11 109 110
Finding 1-2 1-3 1-4 neighbors ...
  special bond factors lj:    0        1        1       
  special bond factors coul:  0        1        1       
     2 = max # of 1-2 neighbors
     2 = max # of special neighbors
  special bonds CPU = 0.000 seconds
angle_coeff 11 0.0008678571428571421
include angles_11.txt
create_bonds single/angle 11 101 102 103
Finding 1-2 1-3 1-4 neighbors ...
  special bond factors lj:    0        1        1       
  special bond factors coul:  0        1        1       
     2 = max # of 1-2 neighbors
     2 = max # of special neighbors
  special bonds CPU = 0.000 seconds
create_bonds single/angle 11 102 103 104
Finding 1-2 1-3 1-4 neighbors ...
  special bond factors lj:    0        1        1       
  special bond factors coul:  0        1        1       
     2 = max # of 1-2 neighbors
     2 = max # of special neighbors
  special bonds CPU = 0.000 seconds
create_bonds single/angle 11 103 104 105
Finding 1-2 1-3 1-4 neighbors ...
  special bond factors lj:    0        1        1       
  special bond factors coul:  0        1        1       
     2 = max # of 1-2 neighbors
     2 = max # of special neighbors
  special bonds CPU = 0.000 seconds
create_bonds single/angle 11 104 105 106
Finding 1-2 1-3 1-4 neighbors ...
  special bond factors lj:    0        1        1       
  special bond factors coul:  0        1        1       
     2 = max # of 1-2 neighbors
     2 = max # of special neighbors
  special bonds CPU = 0.000 seconds
create_bonds single/angle 11 105 106 107
Finding 1-2 1-3 1-4 neighbors ...
  special bond factors lj:    0        1        1       
  special bond factors coul:  0        1        1       
     2 = max # of 1-2 neighbors
     2 = max # of special neighbors
  special bonds CPU = 0.000 seconds
create_bonds single/angle 11 106 107 108
Finding 1-2 1-3 1-4 neighbors ...
  special bond factors lj:    0        1        1       
  special bond factors coul:  0        1        1       
     2 = max # of 1-2 neighbors
     2 = max # of special neighbors
  special bonds CPU = 0.000 seconds
create_bonds single/angle 11 107 108 109
Finding 1-2 1-3 1-4 neighbors ...
  special bond factors lj:    0        1        1       
  special bond factors coul:  0        1        1       
     2 = max # of 1-2 neighbors
     2 = max # of special neighbors
  special bonds CPU = 0.000 seconds
create_bonds single/angle 11 108 109 110
Finding 1-2 1-3 1-4 neighbors ...
  special bond factors lj:    0        1        1       
  special bond factors coul:  0        1        1       
     2 = max # of 1-2 neighbors
     2 = max # of special neighbors
  special bonds CPU = 0.000 seconds

include beam_12.txt
create_atoms 12 single -0.022222222222222223 0.0 -0.0235
Created 1 atoms
[...]
Finding 1-2 1-3 1-4 neighbors ...
  special bond factors lj:    0        1        1       
  special bond factors coul:  0        1        1       
     2 = max # of 1-2 neighbors
     2 = max # of special neighbors
  special bonds CPU = 0.000 seconds
create_bonds single/angle 47 466 467 468
Finding 1-2 1-3 1-4 neighbors ...
  special bond factors lj:    0        1        1       
  special bond factors coul:  0        1        1       
     2 = max # of 1-2 neighbors
     2 = max # of special neighbors
  special bonds CPU = 0.000 seconds
create_bonds single/angle 47 467 468 469
Finding 1-2 1-3 1-4 neighbors ...
  special bond factors lj:    0        1        1       
  special bond factors coul:  0        1        1       
     2 = max # of 1-2 neighbors
     2 = max # of special neighbors
  special bonds CPU = 0.000 seconds
create_bonds single/angle 47 468 469 470
Finding 1-2 1-3 1-4 neighbors ...
  special bond factors lj:    0        1        1       
  special bond factors coul:  0        1        1       
     2 = max # of 1-2 neighbors
     2 = max # of special neighbors
  special bonds CPU = 0.000 seconds

include beam_48.txt
create_atoms 48 single 0.04 0.0 -0.0035
Created 1 atoms
  using lattice units in orthogonal box = (-0.05 -0.015 -0.05) to (0.05 0.015 0.05)
  create_atoms CPU = 0.000 seconds
create_atoms 48 single 0.04 0.0 -0.0027222222222222222
Created 1 atoms
  using lattice units in orthogonal box = (-0.05 -0.015 -0.05) to (0.05 0.015 0.05)
  create_atoms CPU = 0.000 seconds
create_atoms 48 single 0.04 0.0 -0.0019444444444444444
Created 1 atoms
  using lattice units in orthogonal box = (-0.05 -0.015 -0.05) to (0.05 0.015 0.05)
  create_atoms CPU = 0.000 seconds
create_atoms 48 single 0.04 0.0 -0.0011666666666666665
Created 1 atoms
  using lattice units in orthogonal box = (-0.05 -0.015 -0.05) to (0.05 0.015 0.05)
  create_atoms CPU = 0.000 seconds
create_atoms 48 single 0.04 0.0 -0.0003888888888888887
Created 1 atoms
  using lattice units in orthogonal box = (-0.05 -0.015 -0.05) to (0.05 0.015 0.05)
  create_atoms CPU = 0.000 seconds
create_atoms 48 single 0.04 0.0 0.00038888888888888914
Created 1 atoms
  using lattice units in orthogonal box = (-0.05 -0.015 -0.05) to (0.05 0.015 0.05)
  create_atoms CPU = 0.000 seconds
create_atoms 48 single 0.04 0.0 0.001166666666666667
Created 1 atoms
  using lattice units in orthogonal box = (-0.05 -0.015 -0.05) to (0.05 0.015 0.05)
  create_atoms CPU = 0.000 seconds
create_atoms 48 single 0.04 0.0 0.0019444444444444444
Created 1 atoms
  using lattice units in orthogonal box = (-0.05 -0.015 -0.05) to (0.05 0.015 0.05)
  create_atoms CPU = 0.000 seconds
create_atoms 48 single 0.04 0.0 0.0027222222222222227
Created 1 atoms
  using lattice units in orthogonal box = (-0.05 -0.015 -0.05) to (0.05 0.015 0.05)
  create_atoms CPU = 0.000 seconds
create_atoms 48 single 0.04 0.0 0.0035
Created 1 atoms
  using lattice units in orthogonal box = (-0.05 -0.015 -0.05) to (0.05 0.015 0.05)
  create_atoms CPU = 0.000 seconds
set type 48 diameter 0.003
Setting atom values ...
  10 settings made for diameter
set type 48 density 0.01
Setting atom values ...
  10 settings made for density
bond_coeff 48 578.5714285714286 0.0007777777777777778
include bonds_48.txt
create_bonds single/bond 48 471 472
Finding 1-2 1-3 1-4 neighbors ...
  special bond factors lj:    0        1        1       
  special bond factors coul:  0        1        1       
     2 = max # of 1-2 neighbors
     2 = max # of special neighbors
  special bonds CPU = 0.000 seconds
create_bonds single/bond 48 472 473
Finding 1-2 1-3 1-4 neighbors ...
  special bond factors lj:    0        1        1       
  special bond factors coul:  0        1        1       
     2 = max # of 1-2 neighbors
     2 = max # of special neighbors
  special bonds CPU = 0.000 seconds
create_bonds single/bond 48 473 474
Finding 1-2 1-3 1-4 neighbors ...
  special bond factors lj:    0        1        1       
  special bond factors coul:  0        1        1       
     2 = max # of 1-2 neighbors
     2 = max # of special neighbors
  special bonds CPU = 0.000 seconds
create_bonds single/bond 48 474 475
Finding 1-2 1-3 1-4 neighbors ...
  special bond factors lj:    0        1        1       
  special bond factors coul:  0        1        1       
     2 = max # of 1-2 neighbors
     2 = max # of special neighbors
  special bonds CPU = 0.000 seconds
create_bonds single/bond 48 475 476
Finding 1-2 1-3 1-4 neighbors ...
  special bond factors lj:    0        1        1       
  special bond factors coul:  0        1        1       
     2 = max # of 1-2 neighbors
     2 = max # of special neighbors
  special bonds CPU = 0.000 seconds
create_bonds single/bond 48 476 477
Finding 1-2 1-3 1-4 neighbors ...
  special bond factors lj:    0        1        1       
  special bond factors coul:  0        1        1       
     2 = max # of 1-2 neighbors
     2 = max # of special neighbors
  special bonds CPU = 0.000 seconds
create_bonds single/bond 48 477 478
Finding 1-2 1-3 1-4 neighbors ...
  special bond factors lj:    0        1        1       
  special bond factors coul:  0        1        1       
     2 = max # of 1-2 neighbors
     2 = max # of special neighbors
  special bonds CPU = 0.000 seconds
create_bonds single/bond 48 478 479
Finding 1-2 1-3 1-4 neighbors ...
  special bond factors lj:    0        1        1       
  special bond factors coul:  0        1        1       
     2 = max # of 1-2 neighbors
     2 = max # of special neighbors
  special bonds CPU = 0.000 seconds
create_bonds single/bond 48 479 480
Finding 1-2 1-3 1-4 neighbors ...
  special bond factors lj:    0        1        1       
  special bond factors coul:  0        1        1       
     2 = max # of 1-2 neighbors
     2 = max # of special neighbors
  special bonds CPU = 0.000 seconds
angle_coeff 48 0.0008678571428571429
include angles_48.txt
create_bonds single/angle 48 471 472 473
Finding 1-2 1-3 1-4 neighbors ...
  special bond factors lj:    0        1        1       
  special bond factors coul:  0        1        1       
     2 = max # of 1-2 neighbors
     2 = max # of special neighbors
  special bonds CPU = 0.000 seconds
create_bonds single/angle 48 472 473 474
Finding 1-2 1-3 1-4 neighbors ...
  special bond factors lj:    0        1        1       
  special bond factors coul:  0        1        1       
     2 = max # of 1-2 neighbors
     2 = max # of special neighbors
  special bonds CPU = 0.000 seconds
create_bonds single/angle 48 473 474 475
Finding 1-2 1-3 1-4 neighbors ...
  special bond factors lj:    0        1        1       
  special bond factors coul:  0        1        1       
     2 = max # of 1-2 neighbors
     2 = max # of special neighbors
  special bonds CPU = 0.000 seconds
create_bonds single/angle 48 474 475 476
Finding 1-2 1-3 1-4 neighbors ...
  special bond factors lj:    0        1        1       
  special bond factors coul:  0        1        1       
     2 = max # of 1-2 neighbors
     2 = max # of special neighbors
  special bonds CPU = 0.000 seconds
create_bonds single/angle 48 475 476 477
Finding 1-2 1-3 1-4 neighbors ...
  special bond factors lj:    0        1        1       
  special bond factors coul:  0        1        1       
     2 = max # of 1-2 neighbors
     2 = max # of special neighbors
  special bonds CPU = 0.000 seconds
create_bonds single/angle 48 476 477 478
Finding 1-2 1-3 1-4 neighbors ...
  special bond factors lj:    0        1        1       
  special bond factors coul:  0        1        1       
     2 = max # of 1-2 neighbors
     2 = max # of special neighbors
  special bonds CPU = 0.000 seconds
create_bonds single/angle 48 477 478 479
Finding 1-2 1-3 1-4 neighbors ...
  special bond factors lj:    0        1        1       
  special bond factors coul:  0        1        1       
     2 = max # of 1-2 neighbors
     2 = max # of special neighbors
  special bonds CPU = 0.000 seconds
create_bonds single/angle 48 478 479 480
Finding 1-2 1-3 1-4 neighbors ...
  special bond factors lj:    0        1        1       
  special bond factors coul:  0        1        1       
     2 = max # of 1-2 neighbors
     2 = max # of special neighbors
  special bonds CPU = 0.000 seconds

include beam_49.txt
create_atoms 49 single 0.04 0.0 0.016499999999999997
Created 1 atoms
  using lattice units in orthogonal box = (-0.05 -0.015 -0.05) to (0.05 0.015 0.05)
  create_atoms CPU = 0.000 seconds
create_atoms 49 single 0.04 0.0 0.017277777777777774
Created 1 atoms
  using lattice units in orthogonal box = (-0.05 -0.015 -0.05) to (0.05 0.015 0.05)
  create_atoms CPU = 0.000 seconds
create_atoms 49 single 0.04 0.0 0.018055555555555554
Created 1 atoms
  using lattice units in orthogonal box = (-0.05 -0.015 -0.05) to (0.05 0.015 0.05)
  create_atoms CPU = 0.000 seconds
create_atoms 49 single 0.04 0.0 0.01883333333333333
Created 1 atoms
  using lattice units in orthogonal box = (-0.05 -0.015 -0.05) to (0.05 0.015 0.05)
  create_atoms CPU = 0.000 seconds
create_atoms 49 single 0.04 0.0 0.019611111111111107
Created 1 atoms
  using lattice units in orthogonal box = (-0.05 -0.015 -0.05) to (0.05 0.015 0.05)
  create_atoms CPU = 0.000 seconds
create_atoms 49 single 0.04 0.0 0.020388888888888887
Created 1 atoms
  using lattice units in orthogonal box = (-0.05 -0.015 -0.05) to (0.05 0.015 0.05)
  create_atoms CPU = 0.000 seconds
create_atoms 49 single 0.04 0.0 0.021166666666666663
Created 1 atoms
  using lattice units in orthogonal box = (-0.05 -0.015 -0.05) to (0.05 0.015 0.05)
  create_atoms CPU = 0.000 seconds
create_atoms 49 single 0.04 0.0 0.02194444444444444
Created 1 atoms
  using lattice units in orthogonal box = (-0.05 -0.015 -0.05) to (0.05 0.015 0.05)
  create_atoms CPU = 0.000 seconds
create_atoms 49 single 0.04 0.0 0.02272222222222222
Created 1 atoms
  using lattice units in orthogonal box = (-0.05 -0.015 -0.05) to (0.05 0.015 0.05)
  create_atoms CPU = 0.000 seconds
create_atoms 49 single 0.04 0.0 0.023499999999999997
Created 1 atoms
  using lattice units in orthogonal box = (-0.05 -0.015 -0.05) to (0.05 0.015 0.05)
  create_atoms CPU = 0.000 seconds
set type 49 diameter 0.003
Setting atom values ...
  10 settings made for diameter
set type 49 density 0.01
Setting atom values ...
  10 settings made for density
bond_coeff 49 578.5714285714287 0.0007777777777777777
include bonds_49.txt
create_bonds single/bond 49 481 482
Finding 1-2 1-3 1-4 neighbors ...
  special bond factors lj:    0        1        1       
  special bond factors coul:  0        1        1       
     2 = max # of 1-2 neighbors
     2 = max # of special neighbors
  special bonds CPU = 0.000 seconds
create_bonds single/bond 49 482 483
Finding 1-2 1-3 1-4 neighbors ...
  special bond factors lj:    0        1        1       
  special bond factors coul:  0        1        1       
     2 = max # of 1-2 neighbors
     2 = max # of special neighbors
  special bonds CPU = 0.000 seconds
create_bonds single/bond 49 483 484
Finding 1-2 1-3 1-4 neighbors ...
  special bond factors lj:    0        1        1       
  special bond factors coul:  0        1        1       
     2 = max # of 1-2 neighbors
     2 = max # of special neighbors
  special bonds CPU = 0.000 seconds
create_bonds single/bond 49 484 485
Finding 1-2 1-3 1-4 neighbors ...
  special bond factors lj:    0        1        1       
  special bond factors coul:  0        1        1       
     2 = max # of 1-2 neighbors
     2 = max # of special neighbors
  special bonds CPU = 0.000 seconds
create_bonds single/bond 49 485 486
Finding 1-2 1-3 1-4 neighbors ...
  special bond factors lj:    0        1        1       
  special bond factors coul:  0        1        1       
     2 = max # of 1-2 neighbors
     2 = max # of special neighbors
  special bonds CPU = 0.000 seconds
create_bonds single/bond 49 486 487
Finding 1-2 1-3 1-4 neighbors ...
  special bond factors lj:    0        1        1       
  special bond factors coul:  0        1        1       
     2 = max # of 1-2 neighbors
     2 = max # of special neighbors
  special bonds CPU = 0.000 seconds
create_bonds single/bond 49 487 488
Finding 1-2 1-3 1-4 neighbors ...
  special bond factors lj:    0        1        1       
  special bond factors coul:  0        1        1       
     2 = max # of 1-2 neighbors
     2 = max # of special neighbors
  special bonds CPU = 0.000 seconds
create_bonds single/bond 49 488 489
Finding 1-2 1-3 1-4 neighbors ...
  special bond factors lj:    0        1        1       
  special bond factors coul:  0        1        1       
     2 = max # of 1-2 neighbors
     2 = max # of special neighbors
  special bonds CPU = 0.000 seconds
create_bonds single/bond 49 489 490
Finding 1-2 1-3 1-4 neighbors ...
  special bond factors lj:    0        1        1       
  special bond factors coul:  0        1        1       
     2 = max # of 1-2 neighbors
     2 = max # of special neighbors
  special bonds CPU = 0.000 seconds
angle_coeff 49 0.000867857142857143
include angles_49.txt
create_bonds single/angle 49 481 482 483
Finding 1-2 1-3 1-4 neighbors ...
  special bond factors lj:    0        1        1       
  special bond factors coul:  0        1        1       
     2 = max # of 1-2 neighbors
     2 = max # of special neighbors
  special bonds CPU = 0.000 seconds
create_bonds single/angle 49 482 483 484
Finding 1-2 1-3 1-4 neighbors ...
  special bond factors lj:    0        1        1       
  special bond factors coul:  0        1        1       
     2 = max # of 1-2 neighbors
     2 = max # of special neighbors
  special bonds CPU = 0.000 seconds
create_bonds single/angle 49 483 484 485
Finding 1-2 1-3 1-4 neighbors ...
  special bond factors lj:    0        1        1       
  special bond factors coul:  0        1        1       
     2 = max # of 1-2 neighbors
     2 = max # of special neighbors
  special bonds CPU = 0.000 seconds
create_bonds single/angle 49 484 485 486
Finding 1-2 1-3 1-4 neighbors ...
  special bond factors lj:    0        1        1       
  special bond factors coul:  0        1        1       
     2 = max # of 1-2 neighbors
     2 = max # of special neighbors
  special bonds CPU = 0.000 seconds
create_bonds single/angle 49 485 486 487
Finding 1-2 1-3 1-4 neighbors ...
  special bond factors lj:    0        1        1       
  special bond factors coul:  0        1        1       
     2 = max # of 1-2 neighbors
     2 = max # of special neighbors
  special bonds CPU = 0.000 seconds
create_bonds single/angle 49 486 487 488
Finding 1-2 1-3 1-4 neighbors ...
  special bond factors lj:    0        1        1       
  special bond factors coul:  0        1        1       
     2 = max # of 1-2 neighbors
     2 = max # of special neighbors
  special bonds CPU = 0.000 seconds
create_bonds single/angle 49 487 488 489
Finding 1-2 1-3 1-4 neighbors ...
  special bond factors lj:    0        1        1       
  special bond factors coul:  0        1        1       
     2 = max # of 1-2 neighbors
     2 = max # of special neighbors
  special bonds CPU = 0.000 seconds
create_bonds single/angle 49 488 489 490
Finding 1-2 1-3 1-4 neighbors ...
  special bond factors lj:    0        1        1       
  special bond factors coul:  0        1        1       
     2 = max # of 1-2 neighbors
     2 = max # of special neighbors
  special bonds CPU = 0.000 seconds

include beam_50.txt
create_atoms 50 single 0.04 0.0 0.0365
Created 1 atoms
  using lattice units in orthogonal box = (-0.05 -0.015 -0.05) to (0.05 0.015 0.05)
  create_atoms CPU = 0.000 seconds
create_atoms 50 single 0.04 0.0 0.03727777777777778
Created 1 atoms
  using lattice units in orthogonal box = (-0.05 -0.015 -0.05) to (0.05 0.015 0.05)
  create_atoms CPU = 0.000 seconds
create_atoms 50 single 0.04 0.0 0.03805555555555556
Created 1 atoms
  using lattice units in orthogonal box = (-0.05 -0.015 -0.05) to (0.05 0.015 0.05)
  create_atoms CPU = 0.000 seconds
create_atoms 50 single 0.04 0.0 0.03883333333333333
Created 1 atoms
  using lattice units in orthogonal box = (-0.05 -0.015 -0.05) to (0.05 0.015 0.05)
  create_atoms CPU = 0.000 seconds
create_atoms 50 single 0.04 0.0 0.03961111111111111
Created 1 atoms
  using lattice units in orthogonal box = (-0.05 -0.015 -0.05) to (0.05 0.015 0.05)
  create_atoms CPU = 0.000 seconds
create_atoms 50 single 0.04 0.0 0.04038888888888889
Created 1 atoms
  using lattice units in orthogonal box = (-0.05 -0.015 -0.05) to (0.05 0.015 0.05)
  create_atoms CPU = 0.000 seconds
create_atoms 50 single 0.04 0.0 0.04116666666666667
Created 1 atoms
  using lattice units in orthogonal box = (-0.05 -0.015 -0.05) to (0.05 0.015 0.05)
  create_atoms CPU = 0.000 seconds
create_atoms 50 single 0.04 0.0 0.04194444444444445
Created 1 atoms
  using lattice units in orthogonal box = (-0.05 -0.015 -0.05) to (0.05 0.015 0.05)
  create_atoms CPU = 0.000 seconds
create_atoms 50 single 0.04 0.0 0.042722222222222224
Created 1 atoms
  using lattice units in orthogonal box = (-0.05 -0.015 -0.05) to (0.05 0.015 0.05)
  create_atoms CPU = 0.000 seconds
create_atoms 50 single 0.04 0.0 0.043500000000000004
Created 1 atoms
  using lattice units in orthogonal box = (-0.05 -0.015 -0.05) to (0.05 0.015 0.05)
  create_atoms CPU = 0.000 seconds
set type 50 diameter 0.003
Setting atom values ...
  10 settings made for diameter
set type 50 density 0.01
Setting atom values ...
  10 settings made for density
bond_coeff 50 578.5714285714281 0.0007777777777777785
include bonds_50.txt
create_bonds single/bond 50 491 492
Finding 1-2 1-3 1-4 neighbors ...
  special bond factors lj:    0        1        1       
  special bond factors coul:  0        1        1       
     2 = max # of 1-2 neighbors
     2 = max # of special neighbors
  special bonds CPU = 0.000 seconds
create_bonds single/bond 50 492 493
Finding 1-2 1-3 1-4 neighbors ...
  special bond factors lj:    0        1        1       
  special bond factors coul:  0        1        1       
     2 = max # of 1-2 neighbors
     2 = max # of special neighbors
  special bonds CPU = 0.000 seconds
create_bonds single/bond 50 493 494
Finding 1-2 1-3 1-4 neighbors ...
  special bond factors lj:    0        1        1       
  special bond factors coul:  0        1        1       
     2 = max # of 1-2 neighbors
     2 = max # of special neighbors
  special bonds CPU = 0.000 seconds
create_bonds single/bond 50 494 495
Finding 1-2 1-3 1-4 neighbors ...
  special bond factors lj:    0        1        1       
  special bond factors coul:  0        1        1       
     2 = max # of 1-2 neighbors
     2 = max # of special neighbors
  special bonds CPU = 0.000 seconds
create_bonds single/bond 50 495 496
Finding 1-2 1-3 1-4 neighbors ...
  special bond factors lj:    0        1        1       
  special bond factors coul:  0        1        1       
     2 = max # of 1-2 neighbors
     2 = max # of special neighbors
  special bonds CPU = 0.000 seconds
create_bonds single/bond 50 496 497
Finding 1-2 1-3 1-4 neighbors ...
  special bond factors lj:    0        1        1       
  special bond factors coul:  0        1        1       
     2 = max # of 1-2 neighbors
     2 = max # of special neighbors
  special bonds CPU = 0.000 seconds
create_bonds single/bond 50 497 498
Finding 1-2 1-3 1-4 neighbors ...
  special bond factors lj:    0        1        1       
  special bond factors coul:  0        1        1       
     2 = max # of 1-2 neighbors
     2 = max # of special neighbors
  special bonds CPU = 0.000 seconds
create_bonds single/bond 50 498 499
Finding 1-2 1-3 1-4 neighbors ...
  special bond factors lj:    0        1        1       
  special bond factors coul:  0        1        1       
     2 = max # of 1-2 neighbors
     2 = max # of special neighbors
  special bonds CPU = 0.000 seconds
create_bonds single/bond 50 499 500
Finding 1-2 1-3 1-4 neighbors ...
  special bond factors lj:    0        1        1       
  special bond factors coul:  0        1        1    