LAMMPS (29 Aug 2024)
  using 1 OpenMP thread(s) per MPI task
atom_style hybrid angle sphere
WARNING: Atom style hybrid defines both, per-type and per-atom masses; both must be set, but only per-atom masses will be used (src/atom_vec_hybrid.cpp:132)
units si
processors	* * 1
comm_modify vel yes

region simulationStation block -0.025 0.025 -0.005 0.005 -0.05 0.05
create_box 100 simulationStation bond/types 100000 extra/bond/per/atom 100 angle/types 10000 extra/angle/per/atom 100
Created orthogonal box = (-0.025 -0.005 -0.05) to (0.025 0.005 0.05)
  1 by 1 by 1 MPI processor grid
change_box	all boundary f f f
Changing box ...

pair_style hybrid/overlay granular lj/cut 0
pair_coeff  * * granular hertz/material 0 0 0 tangential linear_nohistory 0 0
pair_coeff  * * lj/cut 0 0 0

special_bonds lj/coul 0 1.0 1.0
Finding 1-2 1-3 1-4 neighbors ...
  special bond factors lj:    0        1        1       
  special bond factors coul:  0        1        1       
     0 = max # of 1-2 neighbors
     1 = max # of special neighbors
  special bonds CPU = 0.000 seconds
bond_style harmonic
angle_style cosine

bond_coeff * 0 0
angle_coeff * 0
fix integration all nve/sphere
neigh_modify page 500000 one 50000


### Here we will begin to include particles ###


fix fix_walls_1 all wall/gran/region granular hertz/material 10000 0.25 0.25 tangential linear_nohistory 0 0 region simulationStation
pair_coeff * * granular hertz/material 10000 0 0.5 tangential linear_nohistory 0 0

include beam_1.txt
create_atoms 1 single -0.0225 0.0 -0.0475
Created 1 atoms
  using lattice units in orthogonal box = (-0.025 -0.005 -0.05) to (0.025 0.005 0.05)
  create_atoms CPU = 0.000 seconds
create_atoms 1 single -0.0225 0.0 -0.04686241610738255
Created 1 atoms
  using lattice units in orthogonal box = (-0.025 -0.005 -0.05) to (0.025 0.005 0.05)
  create_atoms CPU = 0.001 seconds
create_atoms 1 single -0.0225 0.0 -0.0462248322147651
Created 1 atoms
  using lattice units in orthogonal box = (-0.025 -0.005 -0.05) to (0.025 0.005 0.05)
  create_atoms CPU = 0.000 seconds
create_atoms 1 single -0.0225 0.0 -0.04558724832214765
Created 1 atoms
  using lattice units in orthogonal box = (-0.025 -0.005 -0.05) to (0.025 0.005 0.05)
  create_atoms CPU = 0.000 seconds
create_atoms 1 single -0.0225 0.0 -0.0449496644295302
Created 1 atoms
  using lattice units in orthogonal box = (-0.025 -0.005 -0.05) to (0.025 0.005 0.05)
  create_atoms CPU = 0.000 seconds
create_atoms 1 single -0.0225 0.0 -0.044312080536912754
Created 1 atoms
  using lattice units in orthogonal box = (-0.025 -0.005 -0.05) to (0.025 0.005 0.05)
  create_atoms CPU = 0.000 seconds
create_atoms 1 single -0.0225 0.0 -0.043674496644295305
Created 1 atoms
  using lattice units in orthogonal box = (-0.025 -0.005 -0.05) to (0.025 0.005 0.05)
  create_atoms CPU = 0.000 seconds
create_atoms 1 single -0.0225 0.0 -0.043036912751677855
Created 1 atoms
  using lattice units in orthogonal box = (-0.025 -0.005 -0.05) to (0.025 0.005 0.05)
  create_atoms CPU = 0.000 seconds
create_atoms 1 single -0.0225 0.0 -0.042399328859060406
Created 1 atoms
  using lattice units in orthogonal box = (-0.025 -0.005 -0.05) to (0.025 0.005 0.05)
  create_atoms CPU = 0.000 seconds
create_atoms 1 single -0.0225 0.0 -0.04176174496644296
Created 1 atoms
  using lattice units in orthogonal box = (-0.025 -0.005 -0.05) to (0.025 0.005 0.05)
  create_atoms CPU = 0.000 seconds
create_atoms 1 single -0.0225 0.0 -0.04112416107382551
Created 1 atoms
  using lattice units in orthogonal box = (-0.025 -0.005 -0.05) to (0.025 0.005 0.05)
  create_atoms CPU = 0.000 seconds
create_atoms 1 single -0.0225 0.0 -0.04048657718120806
Created 1 atoms
  using lattice units in orthogonal box = (-0.025 -0.005 -0.05) to (0.025 0.005 0.05)
  create_atoms CPU = 0.000 seconds
create_atoms 1 single -0.0225 0.0 -0.0398489932885906
Created 1 atoms
  using lattice units in orthogonal box = (-0.025 -0.005 -0.05) to (0.025 0.005 0.05)
  create_atoms CPU = 0.000 seconds
create_atoms 1 single -0.0225 0.0 -0.03921140939597315
Created 1 atoms
  using lattice units in orthogonal box = (-0.025 -0.005 -0.05) to (0.025 0.005 0.05)
  create_atoms CPU = 0.000 seconds
create_atoms 1 single -0.0225 0.0 -0.0385738255033557
Created 1 atoms
  using lattice units in orthogonal box = (-0.025 -0.005 -0.05) to (0.025 0.005 0.05)
  create_atoms CPU = 0.000 seconds
create_atoms 1 single -0.0225 0.0 -0.037936241610738254
Created 1 atoms
  using lattice units in orthogonal box = (-0.025 -0.005 -0.05) to (0.025 0.005 0.05)
  create_atoms CPU = 0.000 seconds
create_atoms 1 single -0.0225 0.0 -0.037298657718120805
Created 1 atoms
  using lattice units in orthogonal box = (-0.025 -0.005 -0.05) to (0.025 0.005 0.05)
  create_atoms CPU = 0.000 seconds
create_atoms 1 single -0.0225 0.0 -0.036661073825503356
Created 1 atoms
  using lattice units in orthogonal box = (-0.025 -0.005 -0.05) to (0.025 0.005 0.05)
  create_atoms CPU = 0.000 seconds
create_atoms 1 single -0.0225 0.0 -0.036023489932885906
Created 1 atoms
  using lattice units in orthogonal box = (-0.025 -0.005 -0.05) to (0.025 0.005 0.05)
  create_atoms CPU = 0.000 seconds
create_atoms 1 single -0.0225 0.0 -0.03538590604026846
Created 1 atoms
  using lattice units in orthogonal box = (-0.025 -0.005 -0.05) to (0.025 0.005 0.05)
  create_atoms CPU = 0.000 seconds
create_atoms 1 single -0.0225 0.0 -0.03474832214765101
Created 1 atoms
  using lattice units in orthogonal box = (-0.025 -0.005 -0.05) to (0.025 0.005 0.05)
  create_atoms CPU = 0.000 seconds
create_atoms 1 single -0.0225 0.0 -0.03411073825503356
Created 1 atoms
  using lattice units in orthogonal box = (-0.025 -0.005 -0.05) to (0.025 0.005 0.05)
  create_atoms CPU = 0.000 seconds
create_atoms 1 single -0.0225 0.0 -0.03347315436241611
Created 1 atoms
  using lattice units in orthogonal box = (-0.025 -0.005 -0.05) to (0.025 0.005 0.05)
  create_atoms CPU = 0.000 seconds
create_atoms 1 single -0.0225 0.0 -0.03283557046979866
Created 1 atoms
  using lattice units in orthogonal box = (-0.025 -0.005 -0.05) to (0.025 0.005 0.05)
  create_atoms CPU = 0.000 seconds
create_atoms 1 single -0.0225 0.0 -0.032197986577181203
Created 1 atoms
  using lattice units in orthogonal box = (-0.025 -0.005 -0.05) to (0.025 0.005 0.05)
  create_atoms CPU = 0.000 seconds
create_atoms 1 single -0.0225 0.0 -0.031560402684563754
Created 1 atoms
  using lattice units in orthogonal box = (-0.025 -0.005 -0.05) to (0.025 0.005 0.05)
  create_atoms CPU = 0.000 seconds
create_atoms 1 single -0.0225 0.0 -0.03092281879194631
Created 1 atoms
  using lattice units in orthogonal box = (-0.025 -0.005 -0.05) to (0.025 0.005 0.05)
  create_atoms CPU = 0.000 seconds
create_atoms 1 single -0.0225 0.0 -0.03028523489932886
Created 1 atoms
  using lattice units in orthogonal box = (-0.025 -0.005 -0.05) to (0.025 0.005 0.05)
  create_atoms CPU = 0.000 seconds
create_atoms 1 single -0.0225 0.0 -0.02964765100671141
Created 1 atoms
  using lattice units in orthogonal box = (-0.025 -0.005 -0.05) to (0.025 0.005 0.05)
  create_atoms CPU = 0.000 seconds
create_atoms 1 single -0.0225 0.0 -0.02901006711409396
Created 1 atoms
  using lattice units in orthogonal box = (-0.025 -0.005 -0.05) to (0.025 0.005 0.05)
  create_atoms CPU = 0.000 seconds
create_atoms 1 single -0.0225 0.0 -0.02837248322147651
Created 1 atoms
  using lattice units in orthogonal box = (-0.025 -0.005 -0.05) to (0.025 0.005 0.05)
  create_atoms CPU = 0.000 seconds
create_atoms 1 single -0.0225 0.0 -0.027734899328859062
Created 1 atoms
  using lattice units in orthogonal box = (-0.025 -0.005 -0.05) to (0.025 0.005 0.05)
  create_atoms CPU = 0.000 seconds
create_atoms 1 single -0.0225 0.0 -0.027097315436241613
Created 1 atoms
  using lattice units in orthogonal box = (-0.025 -0.005 -0.05) to (0.025 0.005 0.05)
  create_atoms CPU = 0.000 seconds
create_atoms 1 single -0.0225 0.0 -0.02645973154362416
Created 1 atoms
  using lattice units in orthogonal box = (-0.025 -0.005 -0.05) to (0.025 0.005 0.05)
  create_atoms CPU = 0.000 seconds
create_atoms 1 single -0.0225 0.0 -0.02582214765100671
Created 1 atoms
  using lattice units in orthogonal box = (-0.025 -0.005 -0.05) to (0.025 0.005 0.05)
  create_atoms CPU = 0.000 seconds
create_atoms 1 single -0.0225 0.0 -0.02518456375838926
Created 1 atoms
  using lattice units in orthogonal box = (-0.025 -0.005 -0.05) to (0.025 0.005 0.05)
  create_atoms CPU = 0.000 seconds
create_atoms 1 single -0.0225 0.0 -0.024546979865771812
Created 1 atoms
  using lattice units in orthogonal box = (-0.025 -0.005 -0.05) to (0.025 0.005 0.05)
  create_atoms CPU = 0.000 seconds
create_atoms 1 single -0.0225 0.0 -0.023909395973154363
Created 1 atoms
  using lattice units in orthogonal box = (-0.025 -0.005 -0.05) to (0.025 0.005 0.05)
  create_atoms CPU = 0.000 seconds
create_atoms 1 single -0.0225 0.0 -0.023271812080536913
Created 1 atoms
  using lattice units in orthogonal box = (-0.025 -0.005 -0.05) to (0.025 0.005 0.05)
  create_atoms CPU = 0.000 seconds
create_atoms 1 single -0.0225 0.0 -0.022634228187919464
Created 1 atoms
  using lattice units in orthogonal box = (-0.025 -0.005 -0.05) to (0.025 0.005 0.05)
  create_atoms CPU = 0.000 seconds
create_atoms 1 single -0.0225 0.0 -0.021996644295302015
Created 1 atoms
  using lattice units in orthogonal box = (-0.025 -0.005 -0.05) to (0.025 0.005 0.05)
  create_atoms CPU = 0.000 seconds
create_atoms 1 single -0.0225 0.0 -0.021359060402684565
Created 1 atoms
  using lattice units in orthogonal box = (-0.025 -0.005 -0.05) to (0.025 0.005 0.05)
  create_atoms CPU = 0.000 seconds
create_atoms 1 single -0.0225 0.0 -0.020721476510067113
Created 1 atoms
  using lattice units in orthogonal box = (-0.025 -0.005 -0.05) to (0.025 0.005 0.05)
  create_atoms CPU = 0.000 seconds
create_atoms 1 single -0.0225 0.0 -0.020083892617449667
Created 1 atoms
  using lattice units in orthogonal box = (-0.025 -0.005 -0.05) to (0.025 0.005 0.05)
  create_atoms CPU = 0.000 seconds
create_atoms 1 single -0.0225 0.0 -0.019446308724832218
Created 1 atoms
  using lattice units in orthogonal box = (-0.025 -0.005 -0.05) to (0.025 0.005 0.05)
  create_atoms CPU = 0.000 seconds
create_atoms 1 single -0.0225 0.0 -0.018808724832214765
Created 1 atoms
  using lattice units in orthogonal box = (-0.025 -0.005 -0.05) to (0.025 0.005 0.05)
  create_atoms CPU = 0.000 seconds
create_atoms 1 single -0.0225 0.0 -0.018171140939597315
Created 1 atoms
  using lattice units in orthogonal box = (-0.025 -0.005 -0.05) to (0.025 0.005 0.05)
  create_atoms CPU = 0.000 seconds
create_atoms 1 single -0.0225 0.0 -0.017533557046979866
Created 1 atoms
  using lattice units in orthogonal box = (-0.025 -0.005 -0.05) to (0.025 0.005 0.05)
  create_atoms CPU = 0.000 seconds
create_atoms 1 single -0.0225 0.0 -0.016895973154362413
Created 1 atoms
  using lattice units in orthogonal box = (-0.025 -0.005 -0.05) to (0.025 0.005 0.05)
  create_atoms CPU = 0.000 seconds
create_atoms 1 single -0.0225 0.0 -0.016258389261744964
Created 1 atoms
  using lattice units in orthogonal box = (-0.025 -0.005 -0.05) to (0.025 0.005 0.05)
  create_atoms CPU = 0.000 seconds
create_atoms 1 single -0.0225 0.0 -0.015620805369127515
Created 1 atoms
  using lattice units in orthogonal box = (-0.025 -0.005 -0.05) to (0.025 0.005 0.05)
  create_atoms CPU = 0.000 seconds
create_atoms 1 single -0.0225 0.0 -0.014983221476510072
Created 1 atoms
  using lattice units in orthogonal box = (-0.025 -0.005 -0.05) to (0.025 0.005 0.05)
  create_atoms CPU = 0.000 seconds
create_atoms 1 single -0.0225 0.0 -0.014345637583892616
Created 1 atoms
  using lattice units in orthogonal box = (-0.025 -0.005 -0.05) to (0.025 0.005 0.05)
  create_atoms CPU = 0.000 seconds
create_atoms 1 single -0.0225 0.0 -0.013708053691275167
Created 1 atoms
  using lattice units in orthogonal box = (-0.025 -0.005 -0.05) to (0.025 0.005 0.05)
  create_atoms CPU = 0.000 seconds
create_atoms 1 single -0.0225 0.0 -0.013070469798657718
Created 1 atoms
  using lattice units in orthogonal box = (-0.025 -0.005 -0.05) to (0.025 0.005 0.05)
  create_atoms CPU = 0.000 seconds
create_atoms 1 single -0.0225 0.0 -0.012432885906040268
Created 1 atoms
  using lattice units in orthogonal box = (-0.025 -0.005 -0.05) to (0.025 0.005 0.05)
  create_atoms CPU = 0.000 seconds
create_atoms 1 single -0.0225 0.0 -0.011795302013422819
Created 1 atoms
  using lattice units in orthogonal box = (-0.025 -0.005 -0.05) to (0.025 0.005 0.05)
  create_atoms CPU = 0.000 seconds
create_atoms 1 single -0.0225 0.0 -0.01115771812080537
Created 1 atoms
  using lattice units in orthogonal box = (-0.025 -0.005 -0.05) to (0.025 0.005 0.05)
  create_atoms CPU = 0.000 seconds
create_atoms 1 single -0.0225 0.0 -0.01052013422818792
Created 1 atoms
  using lattice units in orthogonal box = (-0.025 -0.005 -0.05) to (0.025 0.005 0.05)
  create_atoms CPU = 0.000 seconds
create_atoms 1 single -0.0225 0.0 -0.009882550335570464
Created 1 atoms
  using lattice units in orthogonal box = (-0.025 -0.005 -0.05) to (0.025 0.005 0.05)
  create_atoms CPU = 0.000 seconds
create_atoms 1 single -0.0225 0.0 -0.009244966442953022
Created 1 atoms
  using lattice units in orthogonal box = (-0.025 -0.005 -0.05) to (0.025 0.005 0.05)
  create_atoms CPU = 0.000 seconds
create_atoms 1 single -0.0225 0.0 -0.008607382550335572
Created 1 atoms
  using lattice units in orthogonal box = (-0.025 -0.005 -0.05) to (0.025 0.005 0.05)
  create_atoms CPU = 0.000 seconds
create_atoms 1 single -0.0225 0.0 -0.007969798657718123
Created 1 atoms
  using lattice units in orthogonal box = (-0.025 -0.005 -0.05) to (0.025 0.005 0.05)
  create_atoms CPU = 0.000 seconds
create_atoms 1 single -0.0225 0.0 -0.007332214765100667
Created 1 atoms
  using lattice units in orthogonal box = (-0.025 -0.005 -0.05) to (0.025 0.005 0.05)
  create_atoms CPU = 0.000 seconds
create_atoms 1 single -0.0225 0.0 -0.006694630872483225
Created 1 atoms
  using lattice units in orthogonal box = (-0.025 -0.005 -0.05) to (0.025 0.005 0.05)
  create_atoms CPU = 0.000 seconds
create_atoms 1 single -0.0225 0.0 -0.006057046979865775
Created 1 atoms
  using lattice units in orthogonal box = (-0.025 -0.005 -0.05) to (0.025 0.005 0.05)
  create_atoms CPU = 0.000 seconds
create_atoms 1 single -0.0225 0.0 -0.005419463087248319
Created 1 atoms
  using lattice units in orthogonal box = (-0.025 -0.005 -0.05) to (0.025 0.005 0.05)
  create_atoms CPU = 0.000 seconds
create_atoms 1 single -0.0225 0.0 -0.00478187919463087
Created 1 atoms
  using lattice units in orthogonal box = (-0.025 -0.005 -0.05) to (0.025 0.005 0.05)
  create_atoms CPU = 0.000 seconds
create_atoms 1 single -0.0225 0.0 -0.0041442953020134204
Created 1 atoms
  using lattice units in orthogonal box = (-0.025 -0.005 -0.05) to (0.025 0.005 0.05)
  create_atoms CPU = 0.000 seconds
create_atoms 1 single -0.0225 0.0 -0.003506711409395978
Created 1 atoms
  using lattice units in orthogonal box = (-0.025 -0.005 -0.05) to (0.025 0.005 0.05)
  create_atoms CPU = 0.000 seconds
create_atoms 1 single -0.0225 0.0 -0.002869127516778522
Created 1 atoms
  using lattice units in orthogonal box = (-0.025 -0.005 -0.05) to (0.025 0.005 0.05)
  create_atoms CPU = 0.000 seconds
create_atoms 1 single -0.0225 0.0 -0.0022315436241610725
Created 1 atoms
  using lattice units in orthogonal box = (-0.025 -0.005 -0.05) to (0.025 0.005 0.05)
  create_atoms CPU = 0.000 seconds
create_atoms 1 single -0.0225 0.0 -0.0015939597315436232
Created 1 atoms
  using lattice units in orthogonal box = (-0.025 -0.005 -0.05) to (0.025 0.005 0.05)
  create_atoms CPU = 0.000 seconds
create_atoms 1 single -0.0225 0.0 -0.000956375838926174
Created 1 atoms
  using lattice units in orthogonal box = (-0.025 -0.005 -0.05) to (0.025 0.005 0.05)
  create_atoms CPU = 0.000 seconds
create_atoms 1 single -0.0225 0.0 -0.00031879194630872465
Created 1 atoms
  using lattice units in orthogonal box = (-0.025 -0.005 -0.05) to (0.025 0.005 0.05)
  create_atoms CPU = 0.000 seconds
create_atoms 1 single -0.0225 0.0 0.00031879194630872465
Created 1 atoms
  using lattice units in orthogonal box = (-0.025 -0.005 -0.05) to (0.025 0.005 0.05)
  create_atoms CPU = 0.000 seconds
create_atoms 1 single -0.0225 0.0 0.000956375838926174
Created 1 atoms
  using lattice units in orthogonal box = (-0.025 -0.005 -0.05) to (0.025 0.005 0.05)
  create_atoms CPU = 0.000 seconds
create_atoms 1 single -0.0225 0.0 0.0015939597315436232
Created 1 atoms
  using lattice units in orthogonal box = (-0.025 -0.005 -0.05) to (0.025 0.005 0.05)
  create_atoms CPU = 0.000 seconds
create_atoms 1 single -0.0225 0.0 0.0022315436241610725
Created 1 atoms
  using lattice units in orthogonal box = (-0.025 -0.005 -0.05) to (0.025 0.005 0.05)
  create_atoms CPU = 0.000 seconds
create_atoms 1 single -0.0225 0.0 0.002869127516778522
Created 1 atoms
  using lattice units in orthogonal box = (-0.025 -0.005 -0.05) to (0.025 0.005 0.05)
  create_atoms CPU = 0.000 seconds
create_atoms 1 single -0.0225 0.0 0.003506711409395971
Created 1 atoms
  using lattice units in orthogonal box = (-0.025 -0.005 -0.05) to (0.025 0.005 0.05)
  create_atoms CPU = 0.000 seconds
create_atoms 1 single -0.0225 0.0 0.004144295302013427
Created 1 atoms
  using lattice units in orthogonal box = (-0.025 -0.005 -0.05) to (0.025 0.005 0.05)
  create_atoms CPU = 0.000 seconds
create_atoms 1 single -0.0225 0.0 0.00478187919463087
Created 1 atoms
  using lattice units in orthogonal box = (-0.025 -0.005 -0.05) to (0.025 0.005 0.05)
  create_atoms CPU = 0.000 seconds
create_atoms 1 single -0.0225 0.0 0.005419463087248319
Created 1 atoms
  using lattice units in orthogonal box = (-0.025 -0.005 -0.05) to (0.025 0.005 0.05)
  create_atoms CPU = 0.000 seconds
create_atoms 1 single -0.0225 0.0 0.006057046979865775
Created 1 atoms
  using lattice units in orthogonal box = (-0.025 -0.005 -0.05) to (0.025 0.005 0.05)
  create_atoms CPU = 0.000 seconds
create_atoms 1 single -0.0225 0.0 0.006694630872483218
Created 1 atoms
  using lattice units in orthogonal box = (-0.025 -0.005 -0.05) to (0.025 0.005 0.05)
  create_atoms CPU = 0.000 seconds
create_atoms 1 single -0.0225 0.0 0.007332214765100667
Created 1 atoms
  using lattice units in orthogonal box = (-0.025 -0.005 -0.05) to (0.025 0.005 0.05)
  create_atoms CPU = 0.000 seconds
create_atoms 1 single -0.0225 0.0 0.007969798657718123
Created 1 atoms
  using lattice units in orthogonal box = (-0.025 -0.005 -0.05) to (0.025 0.005 0.05)
  create_atoms CPU = 0.000 seconds
create_atoms 1 single -0.0225 0.0 0.008607382550335566
Created 1 atoms
  using lattice units in orthogonal box = (-0.025 -0.005 -0.05) to (0.025 0.005 0.05)
  create_atoms CPU = 0.000 seconds
create_atoms 1 single -0.0225 0.0 0.009244966442953022
Created 1 atoms
  using lattice units in orthogonal box = (-0.025 -0.005 -0.05) to (0.025 0.005 0.05)
  create_atoms CPU = 0.000 seconds
create_atoms 1 single -0.0225 0.0 0.009882550335570471
Created 1 atoms
  using lattice units in orthogonal box = (-0.025 -0.005 -0.05) to (0.025 0.005 0.05)
  create_atoms CPU = 0.000 seconds
create_atoms 1 single -0.0225 0.0 0.010520134228187913
Created 1 atoms
  using lattice units in orthogonal box = (-0.025 -0.005 -0.05) to (0.025 0.005 0.05)
  create_atoms CPU = 0.000 seconds
create_atoms 1 single -0.0225 0.0 0.01115771812080537
Created 1 atoms
  using lattice units in orthogonal box = (-0.025 -0.005 -0.05) to (0.025 0.005 0.05)
  create_atoms CPU = 0.000 seconds
create_atoms 1 single -0.0225 0.0 0.011795302013422826
Created 1 atoms
  using lattice units in orthogonal box = (-0.025 -0.005 -0.05) to (0.025 0.005 0.05)
  create_atoms CPU = 0.000 seconds
create_atoms 1 single -0.0225 0.0 0.012432885906040268
Created 1 atoms
  using lattice units in orthogonal box = (-0.025 -0.005 -0.05) to (0.025 0.005 0.05)
  create_atoms CPU = 0.000 seconds
create_atoms 1 single -0.0225 0.0 0.013070469798657718
Created 1 atoms
  using lattice units in orthogonal box = (-0.025 -0.005 -0.05) to (0.025 0.005 0.05)
  create_atoms CPU = 0.000 seconds
create_atoms 1 single -0.0225 0.0 0.013708053691275174
Created 1 atoms
  using lattice units in orthogonal box = (-0.025 -0.005 -0.05) to (0.025 0.005 0.05)
  create_atoms CPU = 0.000 seconds
create_atoms 1 single -0.0225 0.0 0.014345637583892616
Created 1 atoms
  using lattice units in orthogonal box = (-0.025 -0.005 -0.05) to (0.025 0.005 0.05)
  create_atoms CPU = 0.000 seconds
create_atoms 1 single -0.0225 0.0 0.014983221476510072
Created 1 atoms
  using lattice units in orthogonal box = (-0.025 -0.005 -0.05) to (0.025 0.005 0.05)
  create_atoms CPU = 0.000 seconds
create_atoms 1 single -0.0225 0.0 0.015620805369127508
Created 1 atoms
  using lattice units in orthogonal box = (-0.025 -0.005 -0.05) to (0.025 0.005 0.05)
  create_atoms CPU = 0.000 seconds
create_atoms 1 single -0.0225 0.0 0.01625838926174497
Created 1 atoms
  using lattice units in orthogonal box = (-0.025 -0.005 -0.05) to (0.025 0.005 0.05)
  create_atoms CPU = 0.000 seconds
create_atoms 1 single -0.0225 0.0 0.01689597315436242
Created 1 atoms
  using lattice units in orthogonal box = (-0.025 -0.005 -0.05) to (0.025 0.005 0.05)
  create_atoms CPU = 0.000 seconds
create_atoms 1 single -0.0225 0.0 0.017533557046979856
Created 1 atoms
  using lattice units in orthogonal box = (-0.025 -0.005 -0.05) to (0.025 0.005 0.05)
  create_atoms CPU = 0.000 seconds
create_atoms 1 single -0.0225 0.0 0.01817114093959732
Created 1 atoms
  using lattice units in orthogonal box = (-0.025 -0.005 -0.05) to (0.025 0.005 0.05)
  create_atoms CPU = 0.000 seconds
create_atoms 1 single -0.0225 0.0 0.018808724832214768
Created 1 atoms
  using lattice units in orthogonal box = (-0.025 -0.005 -0.05) to (0.025 0.005 0.05)
  create_atoms CPU = 0.000 seconds
create_atoms 1 single -0.0225 0.0 0.019446308724832218
Created 1 atoms
  using lattice units in orthogonal box = (-0.025 -0.005 -0.05) to (0.025 0.005 0.05)
  create_atoms CPU = 0.000 seconds
create_atoms 1 single -0.0225 0.0 0.020083892617449667
Created 1 atoms
  using lattice units in orthogonal box = (-0.025 -0.005 -0.05) to (0.025 0.005 0.05)
  create_atoms CPU = 0.000 seconds
create_atoms 1 single -0.0225 0.0 0.020721476510067116
Created 1 atoms
  using lattice units in orthogonal box = (-0.025 -0.005 -0.05) to (0.025 0.005 0.05)
  create_atoms CPU = 0.000 seconds
create_atoms 1 single -0.0225 0.0 0.021359060402684565
Created 1 atoms
  using lattice units in orthogonal box = (-0.025 -0.005 -0.05) to (0.025 0.005 0.05)
  create_atoms CPU = 0.000 seconds
create_atoms 1 single -0.0225 0.0 0.021996644295302015
Created 1 atoms
  using lattice units in orthogonal box = (-0.025 -0.005 -0.05) to (0.025 0.005 0.05)
  create_atoms CPU = 0.000 seconds
create_atoms 1 single -0.0225 0.0 0.022634228187919464
Created 1 atoms
  using lattice units in orthogonal box = (-0.025 -0.005 -0.05) to (0.025 0.005 0.05)
  create_atoms CPU = 0.000 seconds
create_atoms 1 single -0.0225 0.0 0.023271812080536913
Created 1 atoms
  using lattice units in orthogonal box = (-0.025 -0.005 -0.05) to (0.025 0.005 0.05)
  create_atoms CPU = 0.000 seconds
create_atoms 1 single -0.0225 0.0 0.023909395973154363
Created 1 atoms
  using lattice units in orthogonal box = (-0.025 -0.005 -0.05) to (0.025 0.005 0.05)
  create_atoms CPU = 0.000 seconds
create_atoms 1 single -0.0225 0.0 0.024546979865771812
Created 1 atoms
  using lattice units in orthogonal box = (-0.025 -0.005 -0.05) to (0.025 0.005 0.05)
  create_atoms CPU = 0.000 seconds
create_atoms 1 single -0.0225 0.0 0.02518456375838926
Created 1 atoms
  using lattice units in orthogonal box = (-0.025 -0.005 -0.05) to (0.025 0.005 0.05)
  create_atoms CPU = 0.000 seconds
create_atoms 1 single -0.0225 0.0 0.02582214765100671
Created 1 atoms
  using lattice units in orthogonal box = (-0.025 -0.005 -0.05) to (0.025 0.005 0.05)
  create_atoms CPU = 0.000 seconds
create_atoms 1 single -0.0225 0.0 0.02645973154362416
Created 1 atoms
  using lattice units in orthogonal box = (-0.025 -0.005 -0.05) to (0.025 0.005 0.05)
  create_atoms CPU = 0.000 seconds
create_atoms 1 single -0.0225 0.0 0.02709731543624161
Created 1 atoms
  using lattice units in orthogonal box = (-0.025 -0.005 -0.05) to (0.025 0.005 0.05)
  create_atoms CPU = 0.000 seconds
create_atoms 1 single -0.0225 0.0 0.027734899328859072
Created 1 atoms
  using lattice units in orthogonal box = (-0.025 -0.005 -0.05) to (0.025 0.005 0.05)
  create_atoms CPU = 0.000 seconds
create_atoms 1 single -0.0225 0.0 0.028372483221476508
Created 1 atoms
  using lattice units in orthogonal box = (-0.025 -0.005 -0.05) to (0.025 0.005 0.05)
  create_atoms CPU = 0.000 seconds
create_atoms 1 single -0.0225 0.0 0.029010067114093957
Created 1 atoms
  using lattice units in orthogonal box = (-0.025 -0.005 -0.05) to (0.025 0.005 0.05)
  create_atoms CPU = 0.000 seconds
create_atoms 1 single -0.0225 0.0 0.02964765100671142
Created 1 atoms
  using lattice units in orthogonal box = (-0.025 -0.005 -0.05) to (0.025 0.005 0.05)
  create_atoms CPU = 0.000 seconds
create_atoms 1 single -0.0225 0.0 0.030285234899328856
Created 1 atoms
  using lattice units in orthogonal box = (-0.025 -0.005 -0.05) to (0.025 0.005 0.05)
  create_atoms CPU = 0.000 seconds
create_atoms 1 single -0.0225 0.0 0.030922818791946305
Created 1 atoms
  using lattice units in orthogonal box = (-0.025 -0.005 -0.05) to (0.025 0.005 0.05)
  create_atoms CPU = 0.000 seconds
create_atoms 1 single -0.0225 0.0 0.031560402684563754
Created 1 atoms
  using lattice units in orthogonal box = (-0.025 -0.005 -0.05) to (0.025 0.005 0.05)
  create_atoms CPU = 0.000 seconds
create_atoms 1 single -0.0225 0.0 0.032197986577181203
Created 1 atoms
  using lattice units in orthogonal box = (-0.025 -0.005 -0.05) to (0.025 0.005 0.05)
  create_atoms CPU = 0.000 seconds
create_atoms 1 single -0.0225 0.0 0.03283557046979867
Created 1 atoms
  using lattice units in orthogonal box = (-0.025 -0.005 -0.05) to (0.025 0.005 0.05)
  create_atoms CPU = 0.000 seconds
create_atoms 1 single -0.0225 0.0 0.0334731543624161
Created 1 atoms
  using lattice units in orthogonal box = (-0.025 -0.005 -0.05) to (0.025 0.005 0.05)
  create_atoms CPU = 0.000 seconds
create_atoms 1 single -0.0225 0.0 0.03411073825503355
Created 1 atoms
  using lattice units in orthogonal box = (-0.025 -0.005 -0.05) to (0.025 0.005 0.05)
  create_atoms CPU = 0.000 seconds
create_atoms 1 single -0.0225 0.0 0.034748322147651015
Created 1 atoms
  using lattice units in orthogonal box = (-0.025 -0.005 -0.05) to (0.025 0.005 0.05)
  create_atoms CPU = 0.000 seconds
create_atoms 1 single -0.0225 0.0 0.03538590604026845
Created 1 atoms
  using lattice units in orthogonal box = (-0.025 -0.005 -0.05) to (0.025 0.005 0.05)
  create_atoms CPU = 0.000 seconds
create_atoms 1 single -0.0225 0.0 0.03602348993288591
Created 1 atoms
  using lattice units in orthogonal box = (-0.025 -0.005 -0.05) to (0.025 0.005 0.05)
  create_atoms CPU = 0.000 seconds
create_atoms 1 single -0.0225 0.0 0.03666107382550336
Created 1 atoms
  using lattice units in orthogonal box = (-0.025 -0.005 -0.05) to (0.025 0.005 0.05)
  create_atoms CPU = 0.000 seconds
create_atoms 1 single -0.0225 0.0 0.0372986577181208
Created 1 atoms
  using lattice units in orthogonal box = (-0.025 -0.005 -0.05) to (0.025 0.005 0.05)
  create_atoms CPU = 0.000 seconds
create_atoms 1 single -0.0225 0.0 0.03793624161073826
Created 1 atoms
  using lattice units in orthogonal box = (-0.025 -0.005 -0.05) to (0.025 0.005 0.05)
  create_atoms CPU = 0.000 seconds
create_atoms 1 single -0.0225 0.0 0.038573825503355696
Created 1 atoms
  using lattice units in orthogonal box = (-0.025 -0.005 -0.05) to (0.025 0.005 0.05)
  create_atoms CPU = 0.000 seconds
create_atoms 1 single -0.0225 0.0 0.03921140939597316
Created 1 atoms
  using lattice units in orthogonal box = (-0.025 -0.005 -0.05) to (0.025 0.005 0.05)
  create_atoms CPU = 0.000 seconds
create_atoms 1 single -0.0225 0.0 0.03984899328859061
Created 1 atoms
  using lattice units in orthogonal box = (-0.025 -0.005 -0.05) to (0.025 0.005 0.05)
  create_atoms CPU = 0.000 seconds
create_atoms 1 single -0.0225 0.0 0.040486577181208044
Created 1 atoms
  using lattice units in orthogonal box = (-0.025 -0.005 -0.05) to (0.025 0.005 0.05)
  create_atoms CPU = 0.000 seconds
create_atoms 1 single -0.0225 0.0 0.04112416107382551
Created 1 atoms
  using lattice units in orthogonal box = (-0.025 -0.005 -0.05) to (0.025 0.005 0.05)
  create_atoms CPU = 0.000 seconds
create_atoms 1 single -0.0225 0.0 0.04176174496644296
Created 1 atoms
  using lattice units in orthogonal box = (-0.025 -0.005 -0.05) to (0.025 0.005 0.05)
  create_atoms CPU = 0.000 seconds
create_atoms 1 single -0.0225 0.0 0.042399328859060406
Created 1 atoms
  using lattice units in orthogonal box = (-0.025 -0.005 -0.05) to (0.025 0.005 0.05)
  create_atoms CPU = 0.000 seconds
create_atoms 1 single -0.0225 0.0 0.043036912751677855
Created 1 atoms
  using lattice units in orthogonal box = (-0.025 -0.005 -0.05) to (0.025 0.005 0.05)
  create_atoms CPU = 0.000 seconds
create_atoms 1 single -0.0225 0.0 0.043674496644295305
Created 1 atoms
  using lattice units in orthogonal box = (-0.025 -0.005 -0.05) to (0.025 0.005 0.05)
  create_atoms CPU = 0.000 seconds
create_atoms 1 single -0.0225 0.0 0.044312080536912754
Created 1 atoms
  using lattice units in orthogonal box = (-0.025 -0.005 -0.05) to (0.025 0.005 0.05)
  create_atoms CPU = 0.000 seconds
create_atoms 1 single -0.0225 0.0 0.0449496644295302
Created 1 atoms
  using lattice units in orthogonal box = (-0.025 -0.005 -0.05) to (0.025 0.005 0.05)
  create_atoms CPU = 0.000 seconds
create_atoms 1 single -0.0225 0.0 0.04558724832214765
Created 1 atoms
  using lattice units in orthogonal box = (-0.025 -0.005 -0.05) to (0.025 0.005 0.05)
  create_atoms CPU = 0.000 seconds
create_atoms 1 single -0.0225 0.0 0.0462248322147651
Created 1 atoms
  using lattice units in orthogonal box = (-0.025 -0.005 -0.05) to (0.025 0.005 0.05)
  create_atoms CPU = 0.000 seconds
create_atoms 1 single -0.0225 0.0 0.04686241610738255
Created 1 atoms
  using lattice units in orthogonal box = (-0.025 -0.005 -0.05) to (0.025 0.005 0.05)
  create_atoms CPU = 0.000 seconds
create_atoms 1 single -0.0225 0.0 0.0475
Created 1 atoms
  using lattice units in orthogonal box = (-0.025 -0.005 -0.05) to (0.025 0.005 0.05)
  create_atoms CPU = 0.000 seconds
set type 1 diameter 0.002
Setting atom values ...
  150 settings made for diameter
set type 1 density 0.5
Setting atom values ...
  150 settings made for density
bond_coeff 1 3011.368421052632 0.0006375838926174496
include bonds_1.txt
create_bonds single/bond 1 1 2
Finding 1-2 1-3 1-4 neighbors ...
  special bond factors lj:    0        1        1       
  special bond factors coul:  0        1        1       
     1 = max # of 1-2 neighbors
     1 = max # of special neighbors
  special bonds CPU = 0.000 seconds
create_bonds single/bond 1 2 3
Finding 1-2 1-3 1-4 neighbors ...
  special bond factors lj:    0        1        1       
  special bond factors coul:  0        1        1       
     2 = max # of 1-2 neighbors
     2 = max # of special neighbors
  special bonds CPU = 0.000 seconds
create_bonds single/bond 1 3 4
Finding 1-2 1-3 1-4 neighbors ...
  special bond factors lj:    0        1        1       
  special bond factors coul:  0        1        1       
     2 = max # of 1-2 neighbors
     2 = max # of special neighbors
  special bonds CPU = 0.000 seconds
create_bonds single/bond 1 4 5
Finding 1-2 1-3 1-4 neighbors ...
  special bond factors lj:    0        1        1       
  special bond factors coul:  0        1        1       
     2 = max # of 1-2 neighbors
     2 = max # of special neighbors
  special bonds CPU = 0.000 seconds
create_bonds single/bond 1 5 6
Finding 1-2 1-3 1-4 neighbors ...
  special bond factors lj:    0        1        1       
  special bond factors coul:  0        1        1       
     2 = max # of 1-2 neighbors
     2 = max # of special neighbors
  special bonds CPU = 0.000 seconds
create_bonds single/bond 1 6 7
Finding 1-2 1-3 1-4 neighbors ...
  special bond factors lj:    0        1        1       
  special bond factors coul:  0        1        1       
     2 = max # of 1-2 neighbors
     2 = max # of special neighbors
  special bonds CPU = 0.000 seconds
create_bonds single/bond 1 7 8
Finding 1-2 1-3 1-4 neighbors ...
  special bond factors lj:    0        1        1       
  special bond factors coul:  0        1        1       
     2 = max # of 1-2 neighbors
     2 = max # of special neighbors
  special bonds CPU = 0.000 seconds
create_bonds single/bond 1 8 9
Finding 1-2 1-3 1-4 neighbors ...
  special bond factors lj:    0        1        1       
  special bond factors coul:  0        1        1       
     2 = max # of 1-2 neighbors
     2 = max # of special neighbors
  special bonds CPU = 0.000 seconds
create_bonds single/bond 1 9 10
Finding 1-2 1-3 1-4 neighbors ...
  special bond factors lj:    0        1        1       
  special bond factors coul:  0        1        1       
     2 = max # of 1-2 neighbors
     2 = max # of special neighbors
  special bonds CPU = 0.000 seconds
create_bonds single/bond 1 10 11
Finding 1-2 1-3 1-4 neighbors ...
  special bond factors lj:    0        1        1       
  special bond factors coul:  0        1        1       
     2 = max # of 1-2 neighbors
     2 = max # of special neighbors
  special bonds CPU = 0.000 seconds
create_bonds single/bond 1 11 12
Finding 1-2 1-3 1-4 neighbors ...
  special bond factors lj:    0        1        1       
  special bond factors coul:  0        1        1       
     2 = max # of 1-2 neighbors
     2 = max # of special neighbors
  special bonds CPU = 0.000 seconds
create_bonds single/bond 1 12 13
Finding 1-2 1-3 1-4 neighbors ...
  special bond factors lj:    0        1        1       
  special bond factors coul:  0        1        1       
     2 = max # of 1-2 neighbors
     2 = max # of special neighbors
  special bonds CPU = 0.000 seconds
create_bonds single/bond 1 13 14
Finding 1-2 1-3 1-4 neighbors ...
  special bond factors lj:    0        1        1       
  special bond factors coul:  0        1        1       
     2 = max # of 1-2 neighbors
     2 = max # of special neighbors
  special bonds CPU = 0.000 seconds
create_bonds single/bond 1 14 15
Finding 1-2 1-3 1-4 neighbors ...
  special bond factors lj:    0        1        1       
  special bond factors coul:  0        1        1       
     2 = max # of 1-2 neighbors
     2 = max # of special neighbors
  special bonds CPU = 0.000 seconds
create_bonds single/bond 1 15 16
Finding 1-2 1-3 1-4 neighbors ...
  special bond factors lj:    0        1        1       
  special bond factors coul:  0        1        1       
     2 = max # of 1-2 neighbors
     2 = max # of special neighbors
  special bonds CPU = 0.000 seconds
create_bonds single/bond 1 16 17
Finding 1-2 1-3 1-4 neighbors ...
  special bond factors lj:    0        1        1       
  special bond factors coul:  0        1        1       
     2 = max # of 1-2 neighbors
     2 = max # of special neighbors
  special bonds CPU = 0.000 seconds
create_bonds single/bond 1 17 18
Finding 1-2 1-3 1-4 neighbors ...
  special bond factors lj:    0        1        1       
  special bond factors coul:  0        1        1       
     2 = max # of 1-2 neighbors
     2 = max # of special neighbors
  special bonds CPU = 0.000 seconds
create_bonds single/bond 1 18 19
Finding 1-2 1-3 1-4 neighbors ...
  special bond factors lj:    0        1        1       
  special bond factors coul:  0        1        1       
     2 = max # of 1-2 neighbors
     2 = max # of special neighbors
  special bonds CPU = 0.000 seconds
create_bonds single/bond 1 19 20
Finding 1-2 1-3 1-4 neighbors ...
  special bond factors lj:    0        1        1       
  special bond factors coul:  0        1        1       
     2 = max # of 1-2 neighbors
     2 = max # of special neighbors
  special bonds CPU = 0.000 seconds
create_bonds single/bond 1 20 21
Finding 1-2 1-3 1-4 neighbors ...
  special bond factors lj:    0        1        1       
  special bond factors coul:  0        1        1       
     2 = max # of 1-2 neighbors
     2 = max # of special neighbors
  special bonds CPU = 0.000 seconds
create_bonds single/bond 1 21 22
Finding 1-2 1-3 1-4 neighbors ...
  special bond factors lj:    0        1        1       
  special bond factors coul:  0        1        1       
     2 = max # of 1-2 neighbors
     2 = max # of special neighbors
  special bonds CPU = 0.000 seconds
create_bonds single/bond 1 22 23
Finding 1-2 1-3 1-4 neighbors ...
  special bond factors lj:    0        1        1       
  special bond factors coul:  0        1        1       
     2 = max # of 1-2 neighbors
     2 = max # of special neighbors
  special bonds CPU = 0.000 seconds
create_bonds single/bond 1 23 24
Finding 1-2 1-3 1-4 neighbors ...
  special bond factors lj:    0        1        1       
  special bond factors coul:  0        1        1       
     2 = max # of 1-2 neighbors
     2 = max # of special neighbors
  special bonds CPU = 0.000 seconds
create_bonds single/bond 1 24 25
Finding 1-2 1-3 1-4 neighbors ...
  special bond factors lj:    0        1        1       
  special bond factors coul:  0        1        1       
     2 = max # of 1-2 neighbors
     2 = max # of special neighbors
  special bonds CPU = 0.000 seconds
create_bonds single/bond 1 25 26
Finding 1-2 1-3 1-4 neighbors ...
  special bond factors lj:    0        1        1       
  special bond factors coul:  0        1        1       
     2 = max # of 1-2 neighbors
     2 = max # of special neighbors
  special bonds CPU = 0.000 seconds
create_bonds single/bond 1 26 27
Finding 1-2 1-3 1-4 neighbors ...
  special bond factors lj:    0        1        1       
  special bond factors coul:  0        1        1       
     2 = max # of 1-2 neighbors
     2 = max # of special neighbors
  special bonds CPU = 0.000 seconds
create_bonds single/bond 1 27 28
Finding 1-2 1-3 1-4 neighbors ...
  special bond factors lj:    0        1        1       
  special bond factors coul:  0        1        1       
     2 = max # of 1-2 neighbors
     2 = max # of special neighbors
  special bonds CPU = 0.000 seconds
create_bonds single/bond 1 28 29
Finding 1-2 1-3 1-4 neighbors ...
  special bond factors lj:    0        1        1       
  special bond factors coul:  0        1        1       
     2 = max # of 1-2 neighbors
     2 = max # of special neighbors
  special bonds CPU = 0.000 seconds
create_bonds single/bond 1 29 30
Finding 1-2 1-3 1-4 neighbors ...
  special bond factors lj:    0        1        1       
  special bond factors coul:  0        1        1       
     2 = max # of 1-2 neighbors
     2 = max # of special neighbors
  special bonds CPU = 0.000 seconds
create_bonds single/bond 1 30 31
Finding 1-2 1-3 1-4 neighbors ...
  special bond factors lj:    0        1        1       
  special bond factors coul:  0        1        1       
     2 = max # of 1-2 neighbors
     2 = max # of special neighbors
  special bonds CPU = 0.000 seconds
create_bonds single/bond 1 31 32
Finding 1-2 1-3 1-4 neighbors ...
  special bond factors lj:    0        1        1       
  special bond factors coul:  0        1        1       
     2 = max # of 1-2 neighbors
     2 = max # of special neighbors
  special bonds CPU = 0.000 seconds
create_bonds single/bond 1 32 33
Finding 1-2 1-3 1-4 neighbors ...
  special bond factors lj:    0        1        1       
  special bond factors coul:  0        1        1       
     2 = max # of 1-2 neighbors
     2 = max # of special neighbors
  special bonds CPU = 0.000 seconds
create_bonds single/bond 1 33 34
Finding 1-2 1-3 1-4 neighbors ...
  special bond factors lj:    0        1        1       
  special bond factors coul:  0        1        1       
     2 = max # of 1-2 neighbors
     2 = max # of special neighbors
  special bonds CPU = 0.000 seconds
create_bonds single/bond 1 34 35
Finding 1-2 1-3 1-4 neighbors ...
  special bond factors lj:    0        1        1       
  special bond factors coul:  0        1        1       
     2 = max # of 1-2 neighbors
     2 = max # of special neighbors
  special bonds CPU = 0.000 seconds
create_bonds single/bond 1 35 36
Finding 1-2 1-3 1-4 neighbors ...
  special bond factors lj:    0        1        1       
  special bond factors coul:  0        1        1       
     2 = max # of 1-2 neighbors
     2 = max # of special neighbors
  special bonds CPU = 0.000 seconds
create_bonds single/bond 1 36 37
Finding 1-2 1-3 1-4 neighbors ...
  special bond factors lj:    0        1        1       
  special bond factors coul:  0        1        1       
     2 = max # of 1-2 neighbors
     2 = max # of special neighbors
  special bonds CPU = 0.000 seconds
create_bonds single/bond 1 37 38
Finding 1-2 1-3 1-4 neighbors ...
  special bond factors lj:    0        1        1       
  special bond factors coul:  0        1        1       
     2 = max # of 1-2 neighbors
     2 = max # of special neighbors
  special bonds CPU = 0.000 seconds
create_bonds single/bond 1 38 39
Finding 1-2 1-3 1-4 neighbors ...
  special bond factors lj:    0        1        1       
  special bond factors coul:  0        1        1       
     2 = max # of 1-2 neighbors
     2 = max # of special neighbors
  special bonds CPU = 0.000 seconds
create_bonds single/bond 1 39 40
Finding 1-2 1-3 1-4 neighbors ...
  special bond factors lj:    0        1        1       
  special bond factors coul:  0        1        1       
     2 = max # of 1-2 neighbors
     2 = max # of special neighbors
  special bonds CPU = 0.000 seconds
create_bonds single/bond 1 40 41
Finding 1-2 1-3 1-4 neighbors ...
  special bond factors lj:    0        1        1       
  special bond factors coul:  0        1        1       
     2 = max # of 1-2 neighbors
     2 = max # of special neighbors
  special bonds CPU = 0.000 seconds
create_bonds single/bond 1 41 42
Finding 1-2 1-3 1-4 neighbors ...
  special bond factors lj:    0        1        1       
  special bond factors coul:  0        1        1       
     2 = max # of 1-2 neighbors
     2 = max # of special neighbors
  special bonds CPU = 0.000 seconds
create_bonds single/bond 1 42 43
Finding 1-2 1-3 1-4 neighbors ...
  special bond factors lj:    0        1        1       
  special bond factors coul:  0        1        1       
     2 = max # of 1-2 neighbors
     2 = max # of special neighbors
  special bonds CPU = 0.000 seconds
create_bonds single/bond 1 43 44
Finding 1-2 1-3 1-4 neighbors ...
  special bond factors lj:    0        1        1       
  special bond factors coul:  0        1        1       
     2 = max # of 1-2 neighbors
     2 = max # of special neighbors
  special bonds CPU = 0.000 seconds
create_bonds single/bond 1 44 45
Finding 1-2 1-3 1-4 neighbors ...
  special bond factors lj:    0        1        1       
  special bond factors coul:  0        1        1       
     2 = max # of 1-2 neighbors
     2 = max # of special neighbors
  special bonds CPU = 0.000 seconds
create_bonds single/bond 1 45 46
Finding 1-2 1-3 1-4 neighbors ...
  special bond factors lj:    0        1        1       
  special bond factors coul:  0        1        1       
     2 = max # of 1-2 neighbors
     2 = max # of special neighbors
  special bonds CPU = 0.000 seconds
create_bonds single/bond 1 46 47
Finding 1-2 1-3 1-4 neighbors ...
  special bond factors lj:    0        1        1       
  special bond factors coul:  0        1        1       
     2 = max # of 1-2 neighbors
     2 = max # of special neighbors
  special bonds CPU = 0.000 seconds
create_bonds single/bond 1 47 48
Finding 1-2 1-3 1-4 neighbors ...
  special bond factors lj:    0        1        1       
  special bond factors coul:  0        1        1       
     2 = max # of 1-2 neighbors
     2 = max # of special neighbors
  special bonds CPU = 0.000 seconds
create_bonds single/bond 1 48 49
Finding 1-2 1-3 1-4 neighbors ...
  special bond factors lj:    0        1        1       
  special bond factors coul:  0        1        1       
     2 = max # of 1-2 neighbors
     2 = max # of special neighbors
  special bonds CPU = 0.000 seconds
create_bonds single/bond 1 49 50
Finding 1-2 1-3 1-4 neighbors ...
  special bond factors lj:    0        1        1       
  special bond factors coul:  0        1        1       
     2 = max # of 1-2 neighbors
     2 = max # of special neighbors
  special bonds CPU = 0.000 seconds
create_bonds single/bond 1 50 51
Finding 1-2 1-3 1-4 neighbors ...
  special bond factors lj:    0        1        1       
  special bond factors coul:  0        1        1       
     2 = max # of 1-2 neighbors
     2 = max # of special neighbors
  special bonds CPU = 0.000 seconds
create_bonds single/bond 1 51 52
Finding 1-2 1-3 1-4 neighbors ...
  special bond factors lj:    0        1        1       
  special bond factors coul:  0        1        1       
     2 = max # of 1-2 neighbors
     2 = max # of special neighbors
  special bonds CPU = 0.000 seconds
create_bonds single/bond 1 52 53
Finding 1-2 1-3 1-4 neighbors ...
  special bond factors lj:    0        1        1       
  special bond factors coul:  0        1        1       
     2 = max # of 1-2 neighbors
     2 = max # of special neighbors
  special bonds CPU = 0.000 seconds
create_bonds single/bond 1 53 54
Finding 1-2 1-3 1-4 neighbors ...
  special bond factors lj:    0        1        1       
  special bond factors coul:  0        1        1       
     2 = max # of 1-2 neighbors
     2 = max # of special neighbors
  special bonds CPU = 0.000 seconds
create_bonds single/bond 1 54 55
Finding 1-2 1-3 1-4 neighbors ...
  special bond factors lj:    0        1        1       
  special bond factors coul:  0        1        1       
     2 = max # of 1-2 neighbors
     2 = max # of special neighbors
  special bonds CPU = 0.000 seconds
create_bonds single/bond 1 55 56
Finding 1-2 1-3 1-4 neighbors ...
  special bond factors lj:    0        1        1       
  special bond factors coul:  0        1        1       
     2 = max # of 1-2 neighbors
     2 = max # of special neighbors
  special bonds CPU = 0.000 seconds
create_bonds single/bond 1 56 57
Finding 1-2 1-3 1-4 neighbors ...
  special bond factors lj:    0        1        1       
  special bond factors coul:  0        1        1       
     2 = max # of 1-2 neighbors
     2 = max # of special neighbors
  special bonds CPU = 0.000 seconds
create_bonds single/bond 1 57 58
Finding 1-2 1-3 1-4 neighbors ...
  special bond factors lj:    0        1        1       
  special bond factors coul:  0        1        1       
     2 = max # of 1-2 neighbors
     2 = max # of special neighbors
  special bonds CPU = 0.000 seconds
create_bonds single/bond 1 58 59
Finding 1-2 1-3 1-4 neighbors ...
  special bond factors lj:    0        1        1       
  special bond factors coul:  0        1        1       
     2 = max # of 1-2 neighbors
     2 = max # of special neighbors
  special bonds CPU = 0.000 seconds
create_bonds single/bond 1 59 60
Finding 1-2 1-3 1-4 neighbors ...
  special bond factors lj:    0        1        1       
  special bond factors coul:  0        1        1       
     2 = max # of 1-2 neighbors
     2 = max # of special neighbors
  special bonds CPU = 0.000 seconds
create_bonds single/bond 1 60 61
Finding 1-2 1-3 1-4 neighbors ...
  special bond factors lj:    0        1        1       
  special bond factors coul:  0        1        1       
     2 = max # of 1-2 neighbors
     2 = max # of special neighbors
  special bonds CPU = 0.000 seconds
create_bonds single/bond 1 61 62
Finding 1-2 1-3 1-4 neighbors ...
  special bond factors lj:    0        1        1       
  special bond factors coul:  0        1        1       
     2 = max # of 1-2 neighbors
     2 = max # of special neighbors
  special bonds CPU = 0.000 seconds
create_bonds single/bond 1 62 63
Finding 1-2 1-3 1-4 neighbors ...
  special bond factors lj:    0        1        1       
  special bond factors coul:  0        1        1       
     2 = max # of 1-2 neighbors
     2 = max # of special neighbors
  special bonds CPU = 0.000 seconds
create_bonds single/bond 1 63 64
Finding 1-2 1-3 1-4 neighbors ...
  special bond factors lj:    0        1        1       
  special bond factors coul:  0        1        1       
     2 = max # of 1-2 neighbors
     2 = max # of special neighbors
  special bonds CPU = 0.000 seconds
create_bonds single/bond 1 64 65
Finding 1-2 1-3 1-4 neighbors ...
  special bond factors lj:    0        1        1       
  special bond factors coul:  0        1        1       
     2 = max # of 1-2 neighbors
     2 = max # of special neighbors
  special bonds CPU = 0.000 seconds
create_bonds single/bond 1 65 66
Finding 1-2 1-3 1-4 neighbors ...
  special bond factors lj:    0        1        1       
  special bond factors coul:  0        1        1       
     2 = max # of 1-2 neighbors
     2 = max # of special neighbors
  special bonds CPU = 0.000 seconds
create_bonds single/bond 1 66 67
Finding 1-2 1-3 1-4 neighbors ...
  special bond factors lj:    0        1        1       
  special bond factors coul:  0        1        1       
     2 = max # of 1-2 neighbors
     2 = max # of special neighbors
  special bonds CPU = 0.000 seconds
create_bonds single/bond 1 67 68
Finding 1-2 1-3 1-4 neighbors ...
  special bond factors lj:    0        1        1       
  special bond factors coul:  0        1        1       
     2 = max # of 1-2 neighbors
     2 = max # of special neighbors
  special bonds CPU = 0.000 seconds
create_bonds single/bond 1 68 69
Finding 1-2 1-3 1-4 neighbors ...
  special bond factors lj:    0        1        1       
  special bond factors coul:  0        1        1       
     2 = max # of 1-2 neighbors
     2 = max # of special neighbors
  special bonds CPU = 0.000 seconds
create_bonds single/bond 1 69 70
Finding 1-2 1-3 1-4 neighbors ...
  special bond factors lj:    0        1        1       
  special bond factors coul:  0        1        1       
     2 = max # of 1-2 neighbors
     2 = max # of special neighbors
  special bonds CPU = 0.000 seconds
create_bonds single/bond 1 70 71
Finding 1-2 1-3 1-4 neighbors ...
  special bond factors lj:    0        1        1       
  special bond factors coul:  0        1        1       
     2 = max # of 1-2 neighbors
     2 = max # of special neighbors
  special bonds CPU = 0.000 seconds
create_bonds single/bond 1 71 72
Finding 1-2 1-3 1-4 neighbors ...
  special bond factors lj:    0        1        1       
  special bond factors coul:  0        1        1       
     2 = max # of 1-2 neighbors
     2 = max # of special neighbors
  special bonds CPU = 0.000 seconds
create_bonds single/bond 1 72 73
Finding 1-2 1-3 1-4 neighbors ...
  special bond factors lj:    0        1        1       
  special bond factors coul:  0        1        1       
     2 = max # of 1-2 neighbors
     2 = max # of special neighbors
  special bonds CPU = 0.000 seconds
create_bonds single/bond 1 73 74
Finding 1-2 1-3 1-4 neighbors ...
  special bond factors lj:    0        1        1       
  special bond factors coul:  0        1        1       
     2 = max # of 1-2 neighbors
     2 = max # of special neighbors
  special bonds CPU = 0.000 seconds
create_bonds single/bond 1 74 75
Finding 1-2 1-3 1-4 neighbors ...
  special bond factors lj:    0        1        1       
  special bond factors coul:  0        1        1       
     2 = max # of 1-2 neighbors
     2 = max # of special neighbors
  special bonds CPU = 0.000 seconds
create_bonds single/bond 1 75 76
Finding 1-2 1-3 1-4 neighbors ...
  special bond factors lj:    0        1        1       
  special bond factors coul:  0        1        1       
     2 = max # of 1-2 neighbors
     2 = max # of special neighbors
  special bonds CPU = 0.000 seconds
create_bonds single/bond 1 76 77
Finding 1-2 1-3 1-4 neighbors ...
  special bond factors lj:    0        1        1       
  special bond factors coul:  0        1        1       
     2 = max # of 1-2 neighbors
     2 = max # of special neighbors
  special bonds CPU = 0.000 seconds
create_bonds single/bond 1 77 78
Finding 1-2 1-3 1-4 neighbors ...
  special bond factors lj:    0        1        1       
  special bond factors coul:  0        1        1       
     2 = max # of 1-2 neighbors
     2 = max # of special neighbors
  special bonds CPU = 0.000 seconds
create_bonds single/bond 1 78 79
Finding 1-2 1-3 1-4 neighbors ...
  special bond factors lj:    0        1        1       
  special bond factors coul:  0        1        1       
     2 = max # of 1-2 neighbors
     2 = max # of special neighbors
  special bonds CPU = 0.000 seconds
create_bonds single/bond 1 79 80
Finding 1-2 1-3 1-4 neighbors ...
  special bond factors lj:    0        1        1       
  special bond factors coul:  0        1        1       
     2 = max # of 1-2 neighbors
     2 = max # of special neighbors
  special bonds CPU = 0.000 seconds
create_bonds single/bond 1 80 81
Finding 1-2 1-3 1-4 neighbors ...
  special bond factors lj:    0        1        1       
  special bond factors coul:  0        1        1       
     2 = max # of 1-2 neighbors
     2 = max # of special neighbors
  special bonds CPU = 0.000 seconds
create_bonds single/bond 1 81 82
Finding 1-2 1-3 1-4 neighbors ...
  special bond factors lj:    0        1        1       
  special bond factors coul:  0        1        1       
     2 = max # of 1-2 neighbors
     2 = max # of special neighbors
  special bonds CPU = 0.000 seconds
create_bonds single/bond 1 82 83
Finding 1-2 1-3 1-4 neighbors ...
  special bond factors lj:    0        1        1       
  special bond factors coul:  0        1        1       
     2 = max # of 1-2 neighbors
     2 = max # of special neighbors
  special bonds CPU = 0.000 seconds
create_bonds single/bond 1 83 84
Finding 1-2 1-3 1-4 neighbors ...
  special bond factors lj:    0        1        1       
  special bond factors coul:  0        1        1       
     2 = max # of 1-2 neighbors
     2 = max # of special neighbors
  special bonds CPU = 0.000 seconds
create_bonds single/bond 1 84 85
Finding 1-2 1-3 1-4 neighbors ...
  special bond factors lj:    0        1        1       
  special bond factors coul:  0        1        1       
     2 = max # of 1-2 neighbors
     2 = max # of special neighbors
  special bonds CPU = 0.000 seconds
create_bonds single/bond 1 85 86
Finding 1-2 1-3 1-4 neighbors ...
  special bond factors lj:    0        1        1       
  special bond factors coul:  0        1        1       
     2 = max # of 1-2 neighbors
     2 = max # of special neighbors
  special bonds CPU = 0.000 seconds
create_bonds single/bond 1 86 87
Finding 1-2 1-3 1-4 neighbors ...
  special bond factors lj:    0        1        1       
  special bond factors coul:  0        1        1       
     2 = max # of 1-2 neighbors
     2 = max # of special neighbors
  special bonds CPU = 0.000 seconds
create_bonds single/bond 1 87 88
Finding 1-2 1-3 1-4 neighbors ...
  special bond factors lj:    0        1        1       
  special bond factors coul:  0        1        1       
     2 = max # of 1-2 neighbors
     2 = max # of special neighbors
  special bonds CPU = 0.000 seconds
create_bonds single/bond 1 88 89
Finding 1-2 1-3 1-4 neighbors ...
  special bond factors lj:    0        1        1       
  special bond factors coul:  0        1        1       
     2 = max # of 1-2 neighbors
     2 = max # of special neighbors
  special bonds CPU = 0.000 seconds
create_bonds single/bond 1 89 90
Finding 1-2 1-3 1-4 neighbors ...
  special bond factors lj:    0        1        1       
  special bond factors coul:  0        1        1       
     2 = max # of 1-2 neighbors
     2 = max # of special neighbors
  special bonds CPU = 0.000 seconds
create_bonds single/bond 1 90 91
Finding 1-2 1-3 1-4 neighbors ...
  special bond factors lj:    0        1        1       
  special bond factors coul:  0        1        1       
     2 = max # of 1-2 neighbors
     2 = max # of special neighbors
  special bonds CPU = 0.000 seconds
create_bonds single/bond 1 91 92
Finding 1-2 1-3 1-4 neighbors ...
  special bond factors lj:    0        1        1       
  special bond factors coul:  0        1        1       
     2 = max # of 1-2 neighbors
     2 = max # of special neighbors
  special bonds CPU = 0.000 seconds
create_bonds single/bond 1 92 93
Finding 1-2 1-3 1-4 neighbors ...
  special bond factors lj:    0        1        1       
  special bond factors coul:  0        1        1       
     2 = max # of 1-2 neighbors
     2 = max # of special neighbors
  special bonds CPU = 0.000 seconds
create_bonds single/bond 1 93 94
Finding 1-2 1-3 1-4 neighbors ...
  special bond factors lj:    0        1        1       
  special bond factors coul:  0        1        1       
     2 = max # of 1-2 neighbors
     2 = max # of special neighbors
  special bonds CPU = 0.000 seconds
create_bonds single/bond 1 94 95
Finding 1-2 1-3 1-4 neighbors ...
  special bond factors lj:    0        1        1       
  special bond factors coul:  0        1        1       
     2 = max # of 1-2 neighbors
     2 = max # of special neighbors
  special bonds CPU = 0.000 seconds
create_bonds single/bond 1 95 96
Finding 1-2 1-3 1-4 neighbors ...
  special bond factors lj:    0        1        1       
  special bond factors coul:  0        1        1       
     2 = max # of 1-2 neighbors
     2 = max # of special neighbors
  special bonds CPU = 0.000 seconds
create_bonds single/bond 1 96 97
Finding 1-2 1-3 1-4 neighbors ...
  special bond factors lj:    0        1        1       
  special bond factors coul:  0        1        1       
     2 = max # of 1-2 neighbors
     2 = max # of special neighbors
  special bonds CPU = 0.000 seconds
create_bonds single/bond 1 97 98
Finding 1-2 1-3 1-4 neighbors ...
  special bond factors lj:    0        1        1       
  special bond factors coul:  0        1        1       
     2 = max # of 1-2 neighbors
     2 = max # of special neighbors
  special bonds CPU = 0.000 seconds
create_bonds single/bond 1 98 99
Finding 1-2 1-3 1-4 neighbors ...
  special bond factors lj:    0        1        1       
  special bond factors coul:  0        1        1       
     2 = max # of 1-2 neighbors
     2 = max # of special neighbors
  special bonds CPU = 0.000 seconds
create_bonds single/bond 1 99 100
Finding 1-2 1-3 1-4 neighbors ...
  special bond factors lj:    0        1        1       
  special bond factors coul:  0        1        1       
     2 = max # of 1-2 neighbors
     2 = max # of special neighbors
  special bonds CPU = 0.000 seconds
create_bonds single/bond 1 100 101
Finding 1-2 1-3 1-4 neighbors ...
  special bond factors lj:    0        1        1       
  special bond factors coul:  0        1        1       
     2 = max # of 1-2 neighbors
     2 = max # of special neighbors
  special bonds CPU = 0.000 seconds
create_bonds single/bond 1 101 102
Finding 1-2 1-3 1-4 neighbors ...
  special bond factors lj:    0        1        1       
  special bond factors coul:  0        1        1       
     2 = max # of 1-2 neighbors
     2 = max # of special neighbors
  special bonds CPU = 0.000 seconds
create_bonds single/bond 1 102 103
Finding 1-2 1-3 1-4 neighbors ...
  special bond factors lj:    0        1        1       
  special bond factors coul:  0        1        1       
     2 = max # of 1-2 neighbors
     2 = max # of special neighbors
  special bonds CPU = 0.000 seconds
create_bonds single/bond 1 103 104
Finding 1-2 1-3 1-4 neighbors ...
  special bond factors lj:    0        1        1       
  special bond factors coul:  0        1        1       
     2 = max # of 1-2 neighbors
     2 = max # of special neighbors
  special bonds CPU = 0.000 seconds
create_bonds single/bond 1 104 105
Finding 1-2 1-3 1-4 neighbors ...
  special bond factors lj:    0        1        1       
  special bond factors coul:  0        1        1       
     2 = max # of 1-2 neighbors
     2 = max # of special neighbors
  special bonds CPU = 0.000 seconds
create_bonds single/bond 1 105 106
Finding 1-2 1-3 1-4 neighbors ...
  special bond factors lj:    0        1        1       
  special bond factors coul:  0        1        1       
     2 = max # of 1-2 neighbors
     2 = max # of special neighbors
  special bonds CPU = 0.000 seconds
create_bonds single/bond 1 106 107
Finding 1-2 1-3 1-4 neighbors ...
  special bond factors lj:    0        1        1       
  special bond factors coul:  0        1        1       
     2 = max # of 1-2 neighbors
     2 = max # of special neighbors
  special bonds CPU = 0.000 seconds
create_bonds single/bond 1 107 108
Finding 1-2 1-3 1-4 neighbors ...
  special bond factors lj:    0        1        1       
  special bond factors coul:  0        1        1       
     2 = max # of 1-2 neighbors
     2 = max # of special neighbors
  special bonds CPU = 0.000 seconds
create_bonds single/bond 1 108 109
Finding 1-2 1-3 1-4 neighbors ...
  special bond factors lj:    0        1        1       
  special bond factors coul:  0        1        1       
     2 = max # of 1-2 neighbors
     2 = max # of special neighbors
  special bonds CPU = 0.000 seconds
create_bonds single/bond 1 109 110
Finding 1-2 1-3 1-4 neighbors ...
  special bond factors lj:    0        1        1       
  special bond factors coul:  0        1        1       
     2 = max # of 1-2 neighbors
     2 = max # of special neighbors
  special bonds CPU = 0.000 seconds
create_bonds single/bond 1 110 111
Finding 1-2 1-3 1-4 neighbors ...
  special bond factors lj:    0        1        1       
  special bond factors coul:  0        1        1       
     2 = max # of 1-2 neighbors
     2 = max # of special neighbors
  special bonds CPU = 0.000 seconds
create_bonds single/bond 1 111 112
Finding 1-2 1-3 1-4 neighbors ...
  special bond factors lj:    0        1        1       
  special bond factors coul:  0        1        1       
     2 = max # of 1-2 neighbors
     2 = max # of special neighbors
  special bonds CPU = 0.000 seconds
create_bonds single/bond 1 112 113
Finding 1-2 1-3 1-4 neighbors ...
  special bond factors lj:    0        1        1       
  special bond factors coul:  0        1        1       
     2 = max # of 1-2 neighbors
     2 = max # of special neighbors
  special bonds CPU = 0.000 seconds
create_bonds single/bond 1 113 114
Finding 1-2 1-3 1-4 neighbors ...
  special bond factors lj:    0        1        1       
  special bond factors coul:  0        1        1       
     2 = max # of 1-2 neighbors
     2 = max # of special neighbors
  special bonds CPU = 0.000 seconds
create_bonds single/bond 1 114 115
Finding 1-2 1-3 1-4 neighbors ...
  special bond factors lj:    0        1        1       
  special bond factors coul:  0        1        1       
     2 = max # of 1-2 neighbors
     2 = max # of special neighbors
  special bonds CPU = 0.000 seconds
create_bonds single/bond 1 115 116
Finding 1-2 1-3 1-4 neighbors ...
  special bond factors lj:    0        1        1       
  special bond factors coul:  0        1        1       
     2 = max # of 1-2 neighbors
     2 = max # of special neighbors
  special bonds CPU = 0.000 seconds
create_bonds single/bond 1 116 117
Finding 1-2 1-3 1-4 neighbors ...
  special bond factors lj:    0        1        1       
  special bond factors coul:  0        1        1       
     2 = max # of 1-2 neighbors
     2 = max # of special neighbors
  special bonds CPU = 0.000 seconds
create_bonds single/bond 1 117 118
Finding 1-2 1-3 1-4 neighbors ...
  special bond factors lj:    0        1        1       
  special bond factors coul:  0        1        1       
     2 = max # of 1-2 neighbors
     2 = max # of special neighbors
  special bonds CPU = 0.000 seconds
create_bonds single/bond 1 118 119
Finding 1-2 1-3 1-4 neighbors ...
  special bond factors lj:    0        1        1       
  special bond factors coul:  0        1        1       
     2 = max # of 1-2 neighbors
     2 = max # of special neighbors
  special bonds CPU = 0.000 seconds
create_bonds single/bond 1 119 120
Finding 1-2 1-3 1-4 neighbors ...
  special bond factors lj:    0        1        1       
  special bond factors coul:  0        1        1       
     2 = max # of 1-2 neighbors
     2 = max # of special neighbors
  special bonds CPU = 0.000 seconds
create_bonds single/bond 1 120 121
Finding 1-2 1-3 1-4 neighbors ...
  special bond factors lj:    0        1        1       
  special bond factors coul:  0        1        1       
     2 = max # of 1-2 neighbors
     2 = max # of special neighbors
  special bonds CPU = 0.000 seconds
create_bonds single/bond 1 121 122
Finding 1-2 1-3 1-4 neighbors ...
  special bond factors lj:    0        1        1       
  special bond factors coul:  0        1        1       
     2 = max # of 1-2 neighbors
     2 = max # of special neighbors
  special bonds CPU = 0.000 seconds
create_bonds single/bond 1 122 123
Finding 1-2 1-3 1-4 neighbors ...
  special bond factors lj:    0        1        1       
  special bond factors coul:  0        1        1       
     2 = max # of 1-2 neighbors
     2 = max # of special neighbors
  special bonds CPU = 0.000 seconds
create_bonds single/bond 1 123 124
Finding 1-2 1-3 1-4 neighbors ...
  special bond factors lj:    0        1        1       
  special bond factors coul:  0        1        1       
     2 = max # of 1-2 neighbors
     2 = max # of special neighbors
  special bonds CPU = 0.000 seconds
create_bonds single/bond 1 124 125
Finding 1-2 1-3 1-4 neighbors ...
  special bond factors lj:    0        1        1       
  special bond factors coul:  0        1        1       
     2 = max # of 1-2 neighbors
     2 = max # of special neighbors
  special bonds CPU = 0.000 seconds
create_bonds single/bond 1 125 126
Finding 1-2 1-3 1-4 neighbors ...
  special bond factors lj:    0        1        1       
  special bond factors coul:  0        1        1       
     2 = max # of 1-2 neighbors
     2 = max # of special neighbors
  special bonds CPU = 0.000 seconds
create_bonds single/bond 1 126 127
Finding 1-2 1-3 1-4 neighbors ...
  special bond factors lj:    0        1        1       
  special bond factors coul:  0        1        1       
     2 = max # of 1-2 neighbors
     2 = max # of special neighbors
  special bonds CPU = 0.000 seconds
create_bonds single/bond 1 127 128
Finding 1-2 1-3 1-4 neighbors ...
  special bond factors lj:    0        1        1       
  special bond factors coul:  0        1        1       
     2 = max # of 1-2 neighbors
     2 = max # of special neighbors
  special bonds CPU = 0.000 seconds
create_bonds single/bond 1 128 129
Finding 1-2 1-3 1-4 neighbors ...
  special bond factors lj:    0        1        1       
  special bond factors coul:  0        1        1       
     2 = max # of 1-2 neighbors
     2 = max # of special neighbors
  special bonds CPU = 0.000 seconds
create_bonds single/bond 1 129 130
Finding 1-2 1-3 1-4 neighbors ...
  special bond factors lj:    0        1        1       
  special bond factors coul:  0        1        1       
     2 = max # of 1-2 neighbors
     2 = max # of special neighbors
  special bonds CPU = 0.000 seconds
create_bonds single/bond 1 130 131
Finding 1-2 1-3 1-4 neighbors ...
  special bond factors lj:    0        1        1       
  special bond factors coul:  0        1        1       
     2 = max # of 1-2 neighbors
     2 = max # of special neighbors
  special bonds CPU = 0.000 seconds
create_bonds single/bond 1 131 132
Finding 1-2 1-3 1-4 neighbors ...
  special bond factors lj:    0        1        1       
  special bond factors coul:  0        1        1       
     2 = max # of 1-2 neighbors
     2 = max # of special neighbors
  special bonds CPU = 0.000 seconds
create_bonds single/bond 1 132 133
Finding 1-2 1-3 1-4 neighbors ...
  special bond factors lj:    0        1        1       
  special bond factors coul:  0        1        1       
     2 = max # of 1-2 neighbors
     2 = max # of special neighbors
  special bonds CPU = 0.000 seconds
create_bonds single/bond 1 133 134
Finding 1-2 1-3 1-4 neighbors ...
  special bond factors lj:    0        1        1       
  special bond factors coul:  0        1        1       
     2 = max # of 1-2 neighbors
     2 = max # of special neighbors
  special bonds CPU = 0.000 seconds
create_bonds single/bond 1 134 135
Finding 1-2 1-3 1-4 neighbors ...
  special bond factors lj:    0        1        1       
  special bond factors coul:  0        1        1       
     2 = max # of 1-2 neighbors
     2 = max # of special neighbors
  special bonds CPU = 0.000 seconds
create_bonds single/bond 1 135 136
Finding 1-2 1-3 1-4 neighbors ...
  special bond factors lj:    0        1        1       
  special bond factors coul:  0        1        1       
     2 = max # of 1-2 neighbors
     2 = max # of special neighbors
  special bonds CPU = 0.000 seconds
create_bonds single/bond 1 136 137
Finding 1-2 1-3 1-4 neighbors ...
  special bond factors lj:    0        1        1       
  special bond factors coul:  0        1        1       
     2 = max # of 1-2 neighbors
     2 = max # of special neighbors
  special bonds CPU = 0.000 seconds
create_bonds single/bond 1 137 138
Finding 1-2 1-3 1-4 neighbors ...
  special bond factors lj:    0        1        1       
  special bond factors coul:  0        1        1       
     2 = max # of 1-2 neighbors
     2 = max # of special neighbors
  special bonds CPU = 0.000 seconds
create_bonds single/bond 1 138 139
Finding 1-2 1-3 1-4 neighbors ...
  special bond factors lj:    0        1        1       
  special bond factors coul:  0        1        1       
     2 = max # of 1-2 neighbors
     2 = max # of special neighbors
  special bonds CPU = 0.000 seconds
create_bonds single/bond 1 139 140
Finding 1-2 1-3 1-4 neighbors ...
  special bond factors lj:    0        1        1       
  special bond factors coul:  0        1        1       
     2 = max # of 1-2 neighbors
     2 = max # of special neighbors
  special bonds CPU = 0.000 seconds
create_bonds single/bond 1 140 141
Finding 1-2 1-3 1-4 neighbors ...
  special bond factors lj:    0        1        1       
  special bond factors coul:  0        1        1       
     2 = max # of 1-2 neighbors
     2 = max # of special neighbors
  special bonds CPU = 0.000 seconds
create_bonds single/bond 1 141 142
Finding 1-2 1-3 1-4 neighbors ...
  special bond factors lj:    0        1        1       
  special bond factors coul:  0        1        1       
     2 = max # of 1-2 neighbors
     2 = max # of special neighbors
  special bonds CPU = 0.000 seconds
create_bonds single/bond 1 142 143
Finding 1-2 1-3 1-4 neighbors ...
  special bond factors lj:    0        1        1       
  special bond factors coul:  0        1        1       
     2 = max # of 1-2 neighbors
     2 = max # of special neighbors
  special bonds CPU = 0.000 seconds
create_bonds single/bond 1 143 144
Finding 1-2 1-3 1-4 neighbors ...
  special bond factors lj:    0        1        1       
  special bond factors coul:  0        1        1       
     2 = max # of 1-2 neighbors
     2 = max # of special neighbors
  special bonds CPU = 0.000 seconds
create_bonds single/bond 1 144 145
Finding 1-2 1-3 1-4 neighbors ...
  special bond factors lj:    0        1        1       
  special bond factors coul:  0        1        1       
     2 = max # of 1-2 neighbors
     2 = max # of special neighbors
  special bonds CPU = 0.000 seconds
create_bonds single/bond 1 145 146
Finding 1-2 1-3 1-4 neighbors ...
  special bond factors lj:    0        1        1       
  special bond factors coul:  0        1        1       
     2 = max # of 1-2 neighbors
     2 = max # of special neighbors
  special bonds CPU = 0.000 seconds
create_bonds single/bond 1 146 147
Finding 1-2 1-3 1-4 neighbors ...
  special bond factors lj:    0        1        1       
  special bond factors coul:  0        1        1       
     2 = max # of 1-2 neighbors
     2 = max # of special neighbors
  special bonds CPU = 0.000 seconds
create_bonds single/bond 1 147 148
Finding 1-2 1-3 1-4 neighbors ...
  special bond factors lj:    0        1        1       
  special bond factors coul:  0        1        1       
     2 = max # of 1-2 neighbors
     2 = max # of special neighbors
  special bonds CPU = 0.000 seconds
create_bonds single/bond 1 148 149
Finding 1-2 1-3 1-4 neighbors ...
  special bond factors lj:    0        1        1       
  special bond factors coul:  0        1        1       
     2 = max # of 1-2 neighbors
     2 = max # of special neighbors
  special bonds CPU = 0.000 seconds
create_bonds single/bond 1 149 150
Finding 1-2 1-3 1-4 neighbors ...
  special bond factors lj:    0        1        1       
  special bond factors coul:  0        1        1       
     2 = max # of 1-2 neighbors
     2 = max # of special neighbors
  special bonds CPU = 0.000 seconds
angle_coeff 1 0.0020075789473684214
include angles_1.txt
create_bonds single/angle 1 1 2 3
Finding 1-2 1-3 1-4 neighbors ...
  special bond factors lj:    0        1        1       
  special bond factors coul:  0        1        1       
     2 = max # of 1-2 neighbors
     2 = max # of special neighbors
  special bonds CPU = 0.000 seconds
create_bonds single/angle 1 2 3 4
Finding 1-2 1-3 1-4 neighbors ...
  special bond factors lj:    0        1        1       
  special bond factors coul:  0        1        1       
     2 = max # of 1-2 neighbors
     2 = max # of special neighbors
  special bonds CPU = 0.000 seconds
create_bonds single/angle 1 3 4 5
Finding 1-2 1-3 1-4 neighbors ...
  special bond factors lj:    0        1        1       
  special bond factors coul:  0        1        1       
     2 = max # of 1-2 neighbors
     2 = max # of special neighbors
  special bonds CPU = 0.000 seconds
create_bonds single/angle 1 4 5 6
Finding 1-2 1-3 1-4 neighbors ...
  special bond factors lj:    0        1        1       
  special bond factors coul:  0        1        1       
     2 = max # of 1-2 neighbors
     2 = max # of special neighbors
  special bonds CPU = 0.000 seconds
create_bonds single/angle 1 5 6 7
Finding 1-2 1-3 1-4 neighbors ...
  special bond factors lj:    0        1        1       
  special bond factors coul:  0        1        1       
     2 = max # of 1-2 neighbors
     2 = max # of special neighbors
  special bonds CPU = 0.000 seconds
create_bonds single/angle 1 6 7 8
Finding 1-2 1-3 1-4 neighbors ...
  special bond factors lj:    0        1        1       
  special bond factors coul:  0        1        1       
     2 = max # of 1-2 neighbors
     2 = max # of special neighbors
  special bonds CPU = 0.000 seconds
create_bonds single/angle 1 7 8 9
Finding 1-2 1-3 1-4 neighbors ...
  special bond factors lj:    0        1        1       
  special bond factors coul:  0        1        1       
     2 = max # of 1-2 neighbors
     2 = max # of special neighbors
  special bonds CPU = 0.000 seconds
create_bonds single/angle 1 8 9 10
Finding 1-2 1-3 1-4 neighbors ...
  special bond factors lj:    0        1        1       
  special bond factors coul:  0        1        1       
     2 = max # of 1-2 neighbors
     2 = max # of special neighbors
  special bonds CPU = 0.000 seconds
create_bonds single/angle 1 9 10 11
Finding 1-2 1-3 1-4 neighbors ...
  special bond factors lj:    0        1        1       
  special bond factors coul:  0        1        1       
     2 = max # of 1-2 neighbors
     2 = max # of special neighbors
  special bonds CPU = 0.000 seconds
create_bonds single/angle 1 10 11 12
Finding 1-2 1-3 1-4 neighbors ...
  special bond factors lj:    0        1        1       
  special bond factors coul:  0        1        1       
     2 = max # of 1-2 neighbors
     2 = max # of special neighbors
  special bonds CPU = 0.000 seconds
create_bonds single/angle 1 11 12 13
Finding 1-2 1-3 1-4 neighbors ...
  special bond factors lj:    0        1        1       
  special bond factors coul:  0        1        1       
     2 = max # of 1-2 neighbors
     2 = max # of special neighbors
  special bonds CPU = 0.000 seconds
create_bonds single/angle 1 12 13 14
Finding 1-2 1-3 1-4 neighbors ...
  special bond factors lj:    0        1        1       
  special bond factors coul:  0        1        1       
     2 = max # of 1-2 neighbors
     2 = max # of special neighbors
  special bonds CPU = 0.000 seconds
create_bonds single/angle 1 13 14 15
Finding 1-2 1-3 1-4 neighbors ...
  special bond factors lj:    0        1        1       
  special bond factors coul:  0        1        1       
     2 = max # of 1-2 neighbors
     2 = max # of special neighbors
  special bonds CPU = 0.000 seconds
create_bonds single/angle 1 14 15 16
Finding 1-2 1-3 1-4 neighbors ...
  special bond factors lj:    0        1        1       
  special bond factors coul:  0        1        1       
     2 = max # of 1-2 neighbors
     2 = max # of special neighbors
  special bonds CPU = 0.000 seconds
create_bonds single/angle 1 15 16 17
Finding 1-2 1-3 1-4 neighbors ...
  special bond factors lj:    0        1        1       
  special bond factors coul:  0        1        1       
     2 = max # of 1-2 neighbors
     2 = max # of special neighbors
  special bonds CPU = 0.000 seconds
create_bonds single/angle 1 16 17 18
Finding 1-2 1-3 1-4 neighbors ...
  special bond factors lj:    0        1        1       
  special bond factors coul:  0        1        1       
     2 = max # of 1-2 neighbors
     2 = max # of special neighbors
  special bonds CPU = 0.000 seconds
create_bonds single/angle 1 17 18 19
Finding 1-2 1-3 1-4 neighbors ...
  special bond factors lj:    0        1        1       
  special bond factors coul:  0        1        1       
     2 = max # of 1-2 neighbors
     2 = max # of special neighbors
  special bonds CPU = 0.000 seconds
create_bonds single/angle 1 18 19 20
Finding 1-2 1-3 1-4 neighbors ...
  special bond factors lj:    0        1        1       
  special bond factors coul:  0        1        1       
     2 = max # of 1-2 neighbors
     2 = max # of special neighbors
  special bonds CPU = 0.000 seconds
create_bonds single/angle 1 19 20 21
Finding 1-2 1-3 1-4 neighbors ...
  special bond factors lj:    0        1        1       
  special bond factors coul:  0        1        1       
     2 = max # of 1-2 neighbors
     2 = max # of special neighbors
  special bonds CPU = 0.000 seconds
create_bonds single/angle 1 20 21 22
Finding 1-2 1-3 1-4 neighbors ...
  special bond factors lj:    0        1        1       
  special bond factors coul:  0        1        1       
     2 = max # of 1-2 neighbors
     2 = max # of special neighbors
  special bonds CPU = 0.000 seconds
create_bonds single/angle 1 21 22 23
Finding 1-2 1-3 1-4 neighbors ...
  special bond factors lj:    0        1        1       
  special bond factors coul:  0        1        1       
     2 = max # of 1-2 neighbors
     2 = max # of special neighbors
  special bonds CPU = 0.000 seconds
create_bonds single/angle 1 22 23 24
Finding 1-2 1-3 1-4 neighbors ...
  special bond factors lj:    0        1        1       
  special bond factors coul:  0        1        1       
     2 = max # of 1-2 neighbors
     2 = max # of special neighbors
  special bonds CPU = 0.000 seconds
create_bonds single/angle 1 23 24 25
Finding 1-2 1-3 1-4 neighbors ...
  special bond factors lj:    0        1        1       
  special bond factors coul:  0        1        1       
     2 = max # of 1-2 neighbors
     2 = max # of special neighbors
  special bonds CPU = 0.000 seconds
create_bonds single/angle 1 24 25 26
Finding 1-2 1-3 1-4 neighbors ...
  special bond factors lj:    0        1        1       
  special bond factors coul:  0        1        1       
     2 = max # of 1-2 neighbors
[...]
     2 = max # of 1-2 neighbors
     2 = max # of special neighbors
  special bonds CPU = 0.000 seconds
create_bonds single/angle 10 1443 1444 1445
Finding 1-2 1-3 1-4 neighbors ...
  special bond factors lj:    0        1        1       
  special bond factors coul:  0        1        1       
     2 = max # of 1-2 neighbors
     2 = max # of special neighbors
  special bonds CPU = 0.000 seconds
create_bonds single/angle 10 1444 1445 1446
Finding 1-2 1-3 1-4 neighbors ...
  special bond factors lj:    0        1        1       
  special bond factors coul:  0        1        1       
     2 = max # of 1-2 neighbors
     2 = max # of special neighbors
  special bonds CPU = 0.000 seconds
create_bonds single/angle 10 1445 1446 1447
Finding 1-2 1-3 1-4 neighbors ...
  special bond factors lj:    0        1        1       
  special bond factors coul:  0        1        1       
     2 = max # of 1-2 neighbors
     2 = max # of special neighbors
  special bonds CPU = 0.000 seconds
create_bonds single/angle 10 1446 1447 1448
Finding 1-2 1-3 1-4 neighbors ...
  special bond factors lj:    0        1        1       
  special bond factors coul:  0        1        1       
     2 = max # of 1-2 neighbors
     2 = max # of special neighbors
  special bonds CPU = 0.000 seconds
create_bonds single/angle 10 1447 1448 1449
Finding 1-2 1-3 1-4 neighbors ...
  special bond factors lj:    0        1        1       
  special bond factors coul:  0        1        1       
     2 = max # of 1-2 neighbors
     2 = max # of special neighbors
  special bonds CPU = 0.000 seconds
create_bonds single/angle 10 1448 1449 1450
Finding 1-2 1-3 1-4 neighbors ...
  special bond factors lj:    0        1        1       
  special bond factors coul:  0        1        1       
     2 = max # of 1-2 neighbors
     2 = max # of special neighbors
  special bonds CPU = 0.000 seconds
create_bonds single/angle 10 1449 1450 1451
Finding 1-2 1-3 1-4 neighbors ...
  special bond factors lj:    0        1        1       
  special bond factors coul:  0        1        1       
     2 = max # of 1-2 neighbors
     2 = max # of special neighbors
  special bonds CPU = 0.000 seconds
create_bonds single/angle 10 1450 1451 1452
Finding 1-2 1-3 1-4 neighbors ...
  special bond factors lj:    0        1        1       
  special bond factors coul:  0        1        1       
     2 = max # of 1-2 neighbors
     2 = max # of special neighbors
  special bonds CPU = 0.000 seconds
create_bonds single/angle 10 1451 1452 1453
Finding 1-2 1-3 1-4 neighbors ...
  special bond factors lj:    0        1        1       
  special bond factors coul:  0        1        1       
     2 = max # of 1-2 neighbors
     2 = max # of special neighbors
  special bonds CPU = 0.000 seconds
create_bonds single/angle 10 1452 1453 1454
Finding 1-2 1-3 1-4 neighbors ...
  special bond factors lj:    0        1        1       
  special bond factors coul:  0        1        1       
     2 = max # of 1-2 neighbors
     2 = max # of special neighbors
  special bonds CPU = 0.000 seconds
create_bonds single/angle 10 1453 1454 1455
Finding 1-2 1-3 1-4 neighbors ...
  special bond factors lj:    0        1        1       
  special bond factors coul:  0        1        1       
     2 = max # of 1-2 neighbors
     2 = max # of special neighbors
  special bonds CPU = 0.000 seconds
create_bonds single/angle 10 1454 1455 1456
Finding 1-2 1-3 1-4 neighbors ...
  special bond factors lj:    0        1        1       
  special bond factors coul:  0        1        1       
     2 = max # of 1-2 neighbors
     2 = max # of special neighbors
  special bonds CPU = 0.000 seconds
create_bonds single/angle 10 1455 1456 1457
Finding 1-2 1-3 1-4 neighbors ...
  special bond factors lj:    0        1        1       
  special bond factors coul:  0        1        1       
     2 = max # of 1-2 neighbors
     2 = max # of special neighbors
  special bonds CPU = 0.000 seconds
create_bonds single/angle 10 1456 1457 1458
Finding 1-2 1-3 1-4 neighbors ...
  special bond factors lj:    0        1        1       
  special bond factors coul:  0        1        1       
     2 = max # of 1-2 neighbors
     2 = max # of special neighbors
  special bonds CPU = 0.000 seconds
create_bonds single/angle 10 1457 1458 1459
Finding 1-2 1-3 1-4 neighbors ...
  special bond factors lj:    0        1        1       
  special bond factors coul:  0        1        1       
     2 = max # of 1-2 neighbors
     2 = max # of special neighbors
  special bonds CPU = 0.000 seconds
create_bonds single/angle 10 1458 1459 1460
Finding 1-2 1-3 1-4 neighbors ...
  special bond factors lj:    0        1        1       
  special bond factors coul:  0        1        1       
     2 = max # of 1-2 neighbors
     2 = max # of special neighbors
  special bonds CPU = 0.000 seconds
create_bonds single/angle 10 1459 1460 1461
Finding 1-2 1-3 1-4 neighbors ...
  special bond factors lj:    0        1        1       
  special bond factors coul:  0        1        1       
     2 = max # of 1-2 neighbors
     2 = max # of special neighbors
  special bonds CPU = 0.000 seconds
create_bonds single/angle 10 1460 1461 1462
Finding 1-2 1-3 1-4 neighbors ...
  special bond factors lj:    0        1        1       
  special bond factors coul:  0        1        1       
     2 = max # of 1-2 neighbors
     2 = max # of special neighbors
  special bonds CPU = 0.000 seconds
create_bonds single/angle 10 1461 1462 1463
Finding 1-2 1-3 1-4 neighbors ...
  special bond factors lj:    0        1        1       
  special bond factors coul:  0        1        1       
     2 = max # of 1-2 neighbors
     2 = max # of special neighbors
  special bonds CPU = 0.000 seconds
create_bonds single/angle 10 1462 1463 1464
Finding 1-2 1-3 1-4 neighbors ...
  special bond factors lj:    0        1        1       
  special bond factors coul:  0        1        1       
     2 = max # of 1-2 neighbors
     2 = max # of special neighbors
  special bonds CPU = 0.000 seconds
create_bonds single/angle 10 1463 1464 1465
Finding 1-2 1-3 1-4 neighbors ...
  special bond factors lj:    0        1        1       
  special bond factors coul:  0        1        1       
     2 = max # of 1-2 neighbors
     2 = max # of special neighbors
  special bonds CPU = 0.000 seconds
create_bonds single/angle 10 1464 1465 1466
Finding 1-2 1-3 1-4 neighbors ...
  special bond factors lj:    0        1        1       
  special bond factors coul:  0        1        1       
     2 = max # of 1-2 neighbors
     2 = max # of special neighbors
  special bonds CPU = 0.000 seconds
create_bonds single/angle 10 1465 1466 1467
Finding 1-2 1-3 1-4 neighbors ...
  special bond factors lj:    0        1        1       
  special bond factors coul:  0        1        1       
     2 = max # of 1-2 neighbors
     2 = max # of special neighbors
  special bonds CPU = 0.000 seconds
create_bonds single/angle 10 1466 1467 1468
Finding 1-2 1-3 1-4 neighbors ...
  special bond factors lj:    0        1        1       
  special bond factors coul:  0        1        1       
     2 = max # of 1-2 neighbors
     2 = max # of special neighbors
  special bonds CPU = 0.000 seconds
create_bonds single/angle 10 1467 1468 1469
Finding 1-2 1-3 1-4 neighbors ...
  special bond factors lj:    0        1        1       
  special bond factors coul:  0        1        1       
     2 = max # of 1-2 neighbors
     2 = max # of special neighbors
  special bonds CPU = 0.000 seconds
create_bonds single/angle 10 1468 1469 1470
Finding 1-2 1-3 1-4 neighbors ...
  special bond factors lj:    0        1        1       
  special bond factors coul:  0        1        1       
     2 = max # of 1-2 neighbors
     2 = max # of special neighbors
  special bonds CPU = 0.000 seconds
create_bonds single/angle 10 1469 1470 1471
Finding 1-2 1-3 1-4 neighbors ...
  special bond factors lj:    0        1        1       
  special bond factors coul:  0        1        1       
     2 = max # of 1-2 neighbors
     2 = max # of special neighbors
  special bonds CPU = 0.000 seconds
create_bonds single/angle 10 1470 1471 1472
Finding 1-2 1-3 1-4 neighbors ...
  special bond factors lj:    0        1        1       
  special bond factors coul:  0        1        1       
     2 = max # of 1-2 neighbors
     2 = max # of special neighbors
  special bonds CPU = 0.000 seconds
create_bonds single/angle 10 1471 1472 1473
Finding 1-2 1-3 1-4 neighbors ...
  special bond factors lj:    0        1        1       
  special bond factors coul:  0        1        1       
     2 = max # of 1-2 neighbors
     2 = max # of special neighbors
  special bonds CPU = 0.000 seconds
create_bonds single/angle 10 1472 1473 1474
Finding 1-2 1-3 1-4 neighbors ...
  special bond factors lj:    0        1        1       
  special bond factors coul:  0        1        1       
     2 = max # of 1-2 neighbors
     2 = max # of special neighbors
  special bonds CPU = 0.000 seconds
create_bonds single/angle 10 1473 1474 1475
Finding 1-2 1-3 1-4 neighbors ...
  special bond factors lj:    0        1        1       
  special bond factors coul:  0        1        1       
     2 = max # of 1-2 neighbors
     2 = max # of special neighbors
  special bonds CPU = 0.000 seconds
create_bonds single/angle 10 1474 1475 1476
Finding 1-2 1-3 1-4 neighbors ...
  special bond factors lj:    0        1        1       
  special bond factors coul:  0        1        1       
     2 = max # of 1-2 neighbors
     2 = max # of special neighbors
  special bonds CPU = 0.000 seconds
create_bonds single/angle 10 1475 1476 1477
Finding 1-2 1-3 1-4 neighbors ...
  special bond factors lj:    0        1        1       
  special bond factors coul:  0        1        1       
     2 = max # of 1-2 neighbors
     2 = max # of special neighbors
  special bonds CPU = 0.000 seconds
create_bonds single/angle 10 1476 1477 1478
Finding 1-2 1-3 1-4 neighbors ...
  special bond factors lj:    0        1        1       
  special bond factors coul:  0        1        1       
     2 = max # of 1-2 neighbors
     2 = max # of special neighbors
  special bonds CPU = 0.000 seconds
create_bonds single/angle 10 1477 1478 1479
Finding 1-2 1-3 1-4 neighbors ...
  special bond factors lj:    0        1        1       
  special bond factors coul:  0        1        1       
     2 = max # of 1-2 neighbors
     2 = max # of special neighbors
  special bonds CPU = 0.000 seconds
create_bonds single/angle 10 1478 1479 1480
Finding 1-2 1-3 1-4 neighbors ...
  special bond factors lj:    0        1        1       
  special bond factors coul:  0        1        1       
     2 = max # of 1-2 neighbors
     2 = max # of special neighbors
  special bonds CPU = 0.000 seconds
create_bonds single/angle 10 1479 1480 1481
Finding 1-2 1-3 1-4 neighbors ...
  special bond factors lj:    0        1        1       
  special bond factors coul:  0        1        1       
     2 = max # of 1-2 neighbors
     2 = max # of special neighbors
  special bonds CPU = 0.000 seconds
create_bonds single/angle 10 1480 1481 1482
Finding 1-2 1-3 1-4 neighbors ...
  special bond factors lj:    0        1        1       
  special bond factors coul:  0        1        1       
     2 = max # of 1-2 neighbors
     2 = max # of special neighbors
  special bonds CPU = 0.000 seconds
create_bonds single/angle 10 1481 1482 1483
Finding 1-2 1-3 1-4 neighbors ...
  special bond factors lj:    0        1        1       
  special bond factors coul:  0        1        1       
     2 = max # of 1-2 neighbors
     2 = max # of special neighbors
  special bonds CPU = 0.000 seconds
create_bonds single/angle 10 1482 1483 1484
Finding 1-2 1-3 1-4 neighbors ...
  special bond factors lj:    0        1        1       
  special bond factors coul:  0        1        1       
     2 = max # of 1-2 neighbors
     2 = max # of special neighbors
  special bonds CPU = 0.000 seconds
create_bonds single/angle 10 1483 1484 1485
Finding 1-2 1-3 1-4 neighbors ...
  special bond factors lj:    0        1        1       
  special bond factors coul:  0        1        1       
     2 = max # of 1-2 neighbors
     2 = max # of special neighbors
  special bonds CPU = 0.000 seconds
create_bonds single/angle 10 1484 1485 1486
Finding 1-2 1-3 1-4 neighbors ...
  special bond factors lj:    0        1        1       
  special bond factors coul:  0        1        1       
     2 = max # of 1-2 neighbors
     2 = max # of special neighbors
  special bonds CPU = 0.000 seconds
create_bonds single/angle 10 1485 1486 1487
Finding 1-2 1-3 1-4 neighbors ...
  special bond factors lj:    0        1        1       
  special bond factors coul:  0        1        1       
     2 = max # of 1-2 neighbors
     2 = max # of special neighbors
  special bonds CPU = 0.000 seconds
create_bonds single/angle 10 1486 1487 1488
Finding 1-2 1-3 1-4 neighbors ...
  special bond factors lj:    0        1        1       
  special bond factors coul:  0        1        1       
     2 = max # of 1-2 neighbors
     2 = max # of special neighbors
  special bonds CPU = 0.000 seconds
create_bonds single/angle 10 1487 1488 1489
Finding 1-2 1-3 1-4 neighbors ...
  special bond factors lj:    0        1        1       
  special bond factors coul:  0        1        1       
     2 = max # of 1-2 neighbors
     2 = max # of special neighbors
  special bonds CPU = 0.000 seconds
create_bonds single/angle 10 1488 1489 1490
Finding 1-2 1-3 1-4 neighbors ...
  special bond factors lj:    0        1        1       
  special bond factors coul:  0        1        1       
     2 = max # of 1-2 neighbors
     2 = max # of special neighbors
  special bonds CPU = 0.000 seconds
create_bonds single/angle 10 1489 1490 1491
Finding 1-2 1-3 1-4 neighbors ...
  special bond factors lj:    0        1        1       
  special bond factors coul:  0        1        1       
     2 = max # of 1-2 neighbors
     2 = max # of special neighbors
  special bonds CPU = 0.000 seconds
create_bonds single/angle 10 1490 1491 1492
Finding 1-2 1-3 1-4 neighbors ...
  special bond factors lj:    0        1        1       
  special bond factors coul:  0        1        1       
     2 = max # of 1-2 neighbors
     2 = max # of special neighbors
  special bonds CPU = 0.000 seconds
create_bonds single/angle 10 1491 1492 1493
Finding 1-2 1-3 1-4 neighbors ...
  special bond factors lj:    0        1        1       
  special bond factors coul:  0        1        1       
     2 = max # of 1-2 neighbors
     2 = max # of special neighbors
  special bonds CPU = 0.000 seconds
create_bonds single/angle 10 1492 1493 1494
Finding 1-2 1-3 1-4 neighbors ...
  special bond factors lj:    0        1        1       
  special bond factors coul:  0        1        1       
     2 = max # of 1-2 neighbors
     2 = max # of special neighbors
  special bonds CPU = 0.000 seconds
create_bonds single/angle 10 1493 1494 1495
Finding 1-2 1-3 1-4 neighbors ...
  special bond factors lj:    0        1        1       
  special bond factors coul:  0        1        1       
     2 = max # of 1-2 neighbors
     2 = max # of special neighbors
  special bonds CPU = 0.000 seconds
create_bonds single/angle 10 1494 1495 1496
Finding 1-2 1-3 1-4 neighbors ...
  special bond factors lj:    0        1        1       
  special bond factors coul:  0        1        1       
     2 = max # of 1-2 neighbors
     2 = max # of special neighbors
  special bonds CPU = 0.000 seconds
create_bonds single/angle 10 1495 1496 1497
Finding 1-2 1-3 1-4 neighbors ...
  special bond factors lj:    0        1        1       
  special bond factors coul:  0        1        1       
     2 = max # of 1-2 neighbors
     2 = max # of special neighbors
  special bonds CPU = 0.000 seconds
create_bonds single/angle 10 1496 1497 1498
Finding 1-2 1-3 1-4 neighbors ...
  special bond factors lj:    0        1        1       
  special bond factors coul:  0        1        1       
     2 = max # of 1-2 neighbors
     2 = max # of special neighbors
  special bonds CPU = 0.000 seconds
create_bonds single/angle 10 1497 1498 1499
Finding 1-2 1-3 1-4 neighbors ...
  special bond factors lj:    0        1        1       
  special bond factors coul:  0        1        1       
     2 = max # of 1-2 neighbors
     2 = max # of special neighbors
  special bonds CPU = 0.000 seconds
create_bonds single/angle 10 1498 1499 1500
Finding 1-2 1-3 1-4 neighbors ...
  special bond factors lj:    0        1        1       
  special bond factors coul:  0        1        1       
     2 = max # of 1-2 neighbors
     2 = max # of special neighbors
  special bonds CPU = 0.000 seconds
pair_coeff 10 10 granular hertz/material 0 0 0.5 tangential linear_nohistory 0 0

group group_move_1 id 1 2 151 152 301 302 451 452 601 602 751 752 901 902 1051 1052 1201 1202 1351 1352
20 atoms in group group_move_1
fix fix_move_1 group_move_1 move linear 0 0 0.019000000000000003

group group_move_2 id 149 150 299 300 449 450 599 600 749 750 899 900 1049 1050 1199 1200 1349 1350 1499 1500
20 atoms in group group_move_2
fix fix_move_2 group_move_2 move linear 0 0 -0.019000000000000003

group group_perturb_1 type 1 3 4 6 10
750 atoms in group group_perturb_1
fix fix_perturb_1 group_perturb_1 gravity 1e-05 vector 1 0 0

group group_perturb_2 type 2 5 7 8 9
750 atoms in group group_perturb_2
fix fix_perturb_2 group_perturb_2 gravity 1e-05 vector -1 0 0

fix fix_viscosity_1 all viscous 2e-07

compute bendingE all pe/atom angle
compute stretchingE all pe/atom bond
dump pump all custom 1 out*.dump id type radius x y z fx fy fz c_bendingE c_stretchingE
dump_modify pump pad 11

timestep 1e-07
dump_modify pump every 100000
run 10000000
Generated 0 of 4950 mixed pair_coeff terms from geometric mixing rule
WARNING: One or more atoms are time integrated more than once (src/modify.cpp:296)
Neighbor list info ...
  update: every = 1 steps, delay = 0 steps, check = yes
  max neighbors/atom: 50000, page size: 500000
  master list distance cutoff = 0.003
  ghost atom cutoff = 0.003
  binsize = 0.0015, bins = 34 7 67
  2 neighbor lists, perpetual/occasional/extra = 2 0 0
  (1) pair granular, perpetual
      attributes: half, newton on, size
      pair build: half/size/bin/newton
      stencil: half/bin/3d
      bin: standard
  (2) pair lj/cut, perpetual
      attributes: half, newton on
      pair build: half/bin/newton
      stencil: half/bin/3d
      bin: standard
Per MPI rank memory allocation (min/avg/max) = 48.41 | 48.41 | 48.41 Mbytes
   Step          Temp          E_pair         E_mol          TotEng         Press     
         0   0              0              1.4800417e-28  1.4800417e-28 -2.5214109e-12
  10000000   6.2039232e+13  0              0.0049436811   0.004945607    83.260649    
Loop time of 4836.77 on 1 procs for 10000000 steps with 1500 atoms

99.8% CPU use with 1 MPI tasks x 1 OpenMP threads

MPI task timing breakdown:
Section |  min time  |  avg time  |  max time  |%varavg| %total
---------------------------------------------------------------
Pair    | 3632.3     | 3632.3     | 3632.3     |   0.0 | 75.10
Bond    | 626.27     | 626.27     | 626.27     |   0.0 | 12.95
Neigh   | 0.48764    | 0.48764    | 0.48764    |   0.0 |  0.01
Comm    | 1.0587     | 1.0587     | 1.0587     |   0.0 |  0.02
Output  | 0.82218    | 0.82218    | 0.82218    |   0.0 |  0.02
Modify  | 541.98     | 541.98     | 541.98     |   0.0 | 11.21
Other   |            | 33.82      |            |       |  0.70

Nlocal:           1500 ave        1500 max        1500 min
Histogram: 1 0 0 0 0 0 0 0 0 0
Nghost:              0 ave           0 max           0 min
Histogram: 1 0 0 0 0 0 0 0 0 0
Neighs:          11878 ave       11878 max       11878 min
Histogram: 1 0 0 0 0 0 0 0 0 0

Total # of neighbors = 11878
Ave neighs/atom = 7.9186667
Ave special neighs/atom = 1.9866667
Neighbor list builds = 596
Dangerous builds = 0
Total wall time: 1:20:37
