ITEM: TIMESTEP
1800000
ITEM: NUMBER OF ATOMS
1500
ITEM: BOX BOUNDS ff ff ff
-2.5000000000000001e-02 2.5000000000000001e-02
-5.0000000000000001e-03 5.0000000000000001e-03
-5.0000000000000003e-02 5.0000000000000003e-02
ITEM: ATOMS id type radius x y z fx fy fz c_bendingE c_stretchingE
1 1 0.001 -0.0225 0 -0.0475 7.17882e-22 0 2.83951e-12 0 3.3476e-28
151 2 0.001 -0.0175 0 -0.0475 7.17882e-22 0 2.83951e-12 0 3.3476e-28
301 3 0.001 -0.0125 0 -0.0475 -7.17882e-22 0 2.83951e-12 0 3.3476e-28
451 4 0.001 -0.00750002 0 -0.0475 -7.17882e-22 0 2.83951e-12 0 3.3476e-28
601 5 0.001 -0.00250002 0 -0.0475 -7.17882e-22 0 2.83951e-12 0 3.3476e-28
751 6 0.001 0.00250002 0 -0.0475 7.17882e-22 0 2.83951e-12 0 3.3476e-28
901 7 0.001 0.00749998 0 -0.0475 -7.17882e-22 0 2.83951e-12 0 3.3476e-28
1051 8 0.001 0.0125 0 -0.0475 7.17882e-22 0 2.83951e-12 0 3.3476e-28
1201 9 0.001 0.0175 0 -0.0475 -7.17882e-22 0 2.83951e-12 0 3.3476e-28
1351 10 0.001 0.0225 0 -0.0475 -7.17882e-22 0 2.83951e-12 0 3.3476e-28
2 1 0.001 -0.0225 0 -0.0468624 7.17882e-22 0 -3.76028e-12 0 3.69998e-28
3 1 0.001 -0.0225 0 -0.0462248 7.17882e-22 0 1.54583e-12 0 5.14476e-29
4 1 0.001 -0.0225 0 -0.0455872 7.17882e-22 0 -2.92542e-12 0 2.35884e-28
152 2 0.001 -0.0175 0 -0.0468624 7.17882e-22 0 -3.76028e-12 0 3.69998e-28
153 2 0.001 -0.0175 0 -0.0462248 7.17882e-22 0 1.54583e-12 0 5.14476e-29
154 2 0.001 -0.0175 0 -0.0455872 7.17882e-22 0 -2.92542e-12 0 2.35884e-28
302 3 0.001 -0.0125 0 -0.0468624 -7.17882e-22 0 -3.76028e-12 0 3.69998e-28
303 3 0.001 -0.0125 0 -0.0462248 -7.17882e-22 0 1.54583e-12 0 5.14476e-29
304 3 0.001 -0.0125 0 -0.0455872 -7.17882e-22 0 -2.92542e-12 0 2.35884e-28
452 4 0.001 -0.00750002 0 -0.0468624 -7.17882e-22 0 -3.76028e-12 0 3.69998e-28
453 4 0.001 -0.00750002 0 -0.0462248 -7.17882e-22 0 1.54583e-12 0 5.14476e-29
454 4 0.001 -0.00750002 0 -0.0455872 -7.17882e-22 0 -2.92542e-12 0 2.35884e-28
602 5 0.001 -0.00250002 0 -0.0468624 -7.17882e-22 0 -3.76028e-12 0 3.69998e-28
603 5 0.001 -0.00250002 0 -0.0462248 -7.17882e-22 0 1.54583e-12 0 5.14476e-29
604 5 0.001 -0.00250002 0 -0.0455872 -7.17882e-22 0 -2.92542e-12 0 2.35884e-28
752 6 0.001 0.00250002 0 -0.0468624 7.17882e-22 0 -3.76028e-12 0 3.69998e-28
753 6 0.001 0.00250002 0 -0.0462248 7.17882e-22 0 1.54583e-12 0 5.14476e-29
754 6 0.001 0.00250002 0 -0.0455872 7.17882e-22 0 -2.92542e-12 0 2.35884e-28
902 7 0.001 0.00749998 0 -0.0468624 -7.17882e-22 0 -3.76028e-12 0 3.69998e-28
903 7 0.001 0.00749998 0 -0.0462248 -7.17882e-22 0 1.54583e-12 0 5.14476e-29
904 7 0.001 0.00749998 0 -0.0455872 -7.17882e-22 0 -2.92542e-12 0 2.35884e-28
1052 8 0.001 0.0125 0 -0.0468624 7.17882e-22 0 -3.76028e-12 0 3.69998e-28
1053 8 0.001 0.0125 0 -0.0462248 7.17882e-22 0 1.54583e-12 0 5.14476e-29
1054 8 0.001 0.0125 0 -0.0455872 7.17882e-22 0 -2.92542e-12 0 2.35884e-28
1202 9 0.001 0.0175 0 -0.0468624 -7.17882e-22 0 -3.76028e-12 0 3.69998e-28
1203 9 0.001 0.0175 0 -0.0462248 -7.17882e-22 0 1.54583e-12 0 5.14476e-29
1204 9 0.001 0.0175 0 -0.0455872 -7.17882e-22 0 -2.92542e-12 0 2.35884e-28
1352 10 0.001 0.0225 0 -0.0468624 -7.17882e-22 0 -3.76028e-12 0 3.69998e-28
1353 10 0.001 0.0225 0 -0.0462248 -7.17882e-22 0 1.54583e-12 0 5.14476e-29
1354 10 0.001 0.0225 0 -0.0455872 -7.17882e-22 0 -2.92542e-12 0 2.35884e-28
5 1 0.001 -0.0225 0 -0.0449497 7.17882e-22 0 3.75542e-13 0 3.73389e-28
6 1 0.001 -0.0225 0 -0.0443121 7.17882e-22 0 5.68397e-12 0 7.40321e-28
155 2 0.001 -0.0175 0 -0.0449497 7.17882e-22 0 3.75542e-13 0 3.73389e-28
156 2 0.001 -0.0175 0 -0.0443121 7.17882e-22 0 5.68397e-12 0 7.40321e-28
305 3 0.001 -0.0125 0 -0.0449497 -7.17882e-22 0 3.75542e-13 0 3.73389e-28
306 3 0.001 -0.0125 0 -0.0443121 -7.17882e-22 0 5.68397e-12 0 7.40321e-28
455 4 0.001 -0.00750002 0 -0.0449497 -7.17882e-22 0 3.75542e-13 0 3.73389e-28
456 4 0.001 -0.00750002 0 -0.0443121 -7.17882e-22 0 5.68397e-12 0 7.40321e-28
605 5 0.001 -0.00250002 0 -0.0449497 -7.17882e-22 0 3.75542e-13 0 3.73389e-28
606 5 0.001 -0.00250002 0 -0.0443121 -7.17882e-22 0 5.68397e-12 0 7.40321e-28
755 6 0.001 0.00250002 0 -0.0449497 7.17882e-22 0 3.75542e-13 0 3.73389e-28
756 6 0.001 0.00250002 0 -0.0443121 7.17882e-22 0 5.68397e-12 0 7.40321e-28
905 7 0.001 0.00749998 0 -0.0449497 -7.17882e-22 0 3.75542e-13 0 3.73389e-28
906 7 0.001 0.00749998 0 -0.0443121 -7.17882e-22 0 5.68397e-12 0 7.40321e-28
1055 8 0.001 0.0125 0 -0.0449497 7.17882e-22 0 3.75542e-13 0 3.73389e-28
1056 8 0.001 0.0125 0 -0.0443121 7.17882e-22 0 5.68397e-12 0 7.40321e-28
1205 9 0.001 0.0175 0 -0.0449497 -7.17882e-22 0 3.75542e-13 0 3.73389e-28
1206 9 0.001 0.0175 0 -0.0443121 -7.17882e-22 0 5.68397e-12 0 7.40321e-28
1355 10 0.001 0.0225 0 -0.0449497 -7.17882e-22 0 3.75542e-13 0 3.73389e-28
1356 10 0.001 0.0225 0 -0.0443121 -7.17882e-22 0 5.68397e-12 0 7.40321e-28
7 1 0.001 -0.0225 0 -0.0436745 7.17882e-22 0 -3.00846e-12 0 6.09973e-28
8 1 0.001 -0.0225 0 -0.0430369 7.17882e-22 0 -2.50655e-13 0 3.37246e-29
157 2 0.001 -0.0175 0 -0.0436745 7.17882e-22 0 -3.00846e-12 0 6.09973e-28
158 2 0.001 -0.0175 0 -0.0430369 7.17882e-22 0 -2.50655e-13 0 3.37246e-29
307 3 0.001 -0.0125 0 -0.0436745 -7.17882e-22 0 -3.00846e-12 0 6.09973e-28
308 3 0.001 -0.0125 0 -0.0430369 -7.17882e-22 0 -2.50655e-13 0 3.37246e-29
457 4 0.001 -0.00750002 0 -0.0436745 -7.17882e-22 0 -3.00846e-12 0 6.09973e-28
458 4 0.001 -0.00750002 0 -0.0430369 -7.17882e-22 0 -2.50655e-13 0 3.37246e-29
607 5 0.001 -0.00250002 0 -0.0436745 -7.17882e-22 0 -3.00846e-12 0 6.09973e-28
608 5 0.001 -0.00250002 0 -0.0430369 -7.17882e-22 0 -2.50655e-13 0 3.37246e-29
757 6 0.001 0.00250002 0 -0.0436745 7.17882e-22 0 -3.00846e-12 0 6.09973e-28
758 6 0.001 0.00250002 0 -0.0430369 7.17882e-22 0 -2.50655e-13 0 3.37246e-29
907 7 0.001 0.00749998 0 -0.0436745 -7.17882e-22 0 -3.00846e-12 0 6.09973e-28
908 7 0.001 0.00749998 0 -0.0430369 -7.17882e-22 0 -2.50655e-13 0 3.37246e-29
1057 8 0.001 0.0125 0 -0.0436745 7.17882e-22 0 -3.00846e-12 0 6.09973e-28
1058 8 0.001 0.0125 0 -0.0430369 7.17882e-22 0 -2.50655e-13 0 3.37246e-29
1207 9 0.001 0.0175 0 -0.0436745 -7.17882e-22 0 -3.00846e-12 0 6.09973e-28
1208 9 0.001 0.0175 0 -0.0430369 -7.17882e-22 0 -2.50655e-13 0 3.37246e-29
1357 10 0.001 0.0225 0 -0.0436745 -7.17882e-22 0 -3.00846e-12 0 6.09973e-28
1358 10 0.001 0.0225 0 -0.0430369 -7.17882e-22 0 -2.50655e-13 0 3.37246e-29
9 1 0.001 -0.0225 0 -0.0423993 7.17882e-22 0 -3.80428e-12 0 4.63343e-28
10 1 0.001 -0.0225 0 -0.0417617 7.17882e-22 0 6.52079e-12 0 8.82291e-28
11 1 0.001 -0.0225 0 -0.0411242 7.17882e-22 0 -4.26266e-12 0 4.74786e-28
159 2 0.001 -0.0175 0 -0.0423993 7.17882e-22 0 -3.80428e-12 0 4.63343e-28
160 2 0.001 -0.0175 0 -0.0417617 7.17882e-22 0 6.52079e-12 0 8.82291e-28
161 2 0.001 -0.0175 0 -0.0411242 7.17882e-22 0 -4.26266e-12 0 4.74786e-28
309 3 0.001 -0.0125 0 -0.0423993 -7.17882e-22 0 -3.80428e-12 0 4.63343e-28
310 3 0.001 -0.0125 0 -0.0417617 -7.17882e-22 0 6.52079e-12 0 8.82291e-28
311 3 0.001 -0.0125 0 -0.0411242 -7.17882e-22 0 -4.26266e-12 0 4.74786e-28
459 4 0.001 -0.00750002 0 -0.0423993 -7.17882e-22 0 -3.80428e-12 0 4.63343e-28
460 4 0.001 -0.00750002 0 -0.0417617 -7.17882e-22 0 6.52079e-12 0 8.82291e-28
461 4 0.001 -0.00750002 0 -0.0411242 -7.17882e-22 0 -4.26266e-12 0 4.74786e-28
609 5 0.001 -0.00250002 0 -0.0423993 -7.17882e-22 0 -3.80428e-12 0 4.63343e-28
610 5 0.001 -0.00250002 0 -0.0417617 -7.17882e-22 0 6.52079e-12 0 8.82291e-28
611 5 0.001 -0.00250002 0 -0.0411242 -7.17882e-22 0 -4.26266e-12 0 4.74786e-28
759 6 0.001 0.00250002 0 -0.0423993 7.17882e-22 0 -3.80428e-12 0 4.63343e-28
760 6 0.001 0.00250002 0 -0.0417617 7.17882e-22 0 6.52079e-12 0 8.82291e-28
761 6 0.001 0.00250002 0 -0.0411242 7.17882e-22 0 -4.26266e-12 0 4.74786e-28
909 7 0.001 0.00749998 0 -0.0423993 -7.17882e-22 0 -3.80428e-12 0 4.63343e-28
910 7 0.001 0.00749998 0 -0.0417617 -7.17882e-22 0 6.52079e-12 0 8.82291e-28
911 7 0.001 0.00749998 0 -0.0411242 -7.17882e-22 0 -4.26266e-12 0 4.74786e-28
1059 8 0.001 0.0125 0 -0.0423993 7.17882e-22 0 -3.80428e-12 0 4.63343e-28
1060 8 0.001 0.0125 0 -0.0417617 7.17882e-22 0 6.52079e-12 0 8.82291e-28
1061 8 0.001 0.0125 0 -0.0411242 7.17882e-22 0 -4.26266e-12 0 4.74786e-28
1209 9 0.001 0.0175 0 -0.0423993 -7.17882e-22 0 -3.80428e-12 0 4.63343e-28
1210 9 0.001 0.0175 0 -0.0417617 -7.17882e-22 0 6.52079e-12 0 8.82291e-28
1211 9 0.001 0.0175 0 -0.0411242 -7.17882e-22 0 -4.26266e-12 0 4.74786e-28
1359 10 0.001 0.0225 0 -0.0423993 -7.17882e-22 0 -3.80428e-12 0 4.63343e-28
1360 10 0.001 0.0225 0 -0.0417617 -7.17882e-22 0 6.52079e-12 0 8.82291e-28
1361 10 0.001 0.0225 0 -0.0411242 -7.17882e-22 0 -4.26266e-12 0 4.74786e-28
12 1 0.001 -0.0225 0 -0.0404866 7.17882e-22 0 2.63222e-12 0 1.49906e-28
13 1 0.001 -0.0225 0 -0.039849 7.17882e-22 0 -4.01109e-12 0 3.48697e-28
162 2 0.001 -0.0175 0 -0.0404866 7.17882e-22 0 2.63222e-12 0 1.49906e-28
163 2 0.001 -0.0175 0 -0.039849 7.17882e-22 0 -4.01109e-12 0 3.48697e-28
312 3 0.001 -0.0125 0 -0.0404866 -7.17882e-22 0 2.63222e-12 0 1.49906e-28
313 3 0.001 -0.0125 0 -0.039849 -7.17882e-22 0 -4.01109e-12 0 3.48697e-28
462 4 0.001 -0.00750002 0 -0.0404866 -7.17882e-22 0 2.63222e-12 0 1.49906e-28
463 4 0.001 -0.00750002 0 -0.039849 -7.17882e-22 0 -4.01109e-12 0 3.48697e-28
612 5 0.001 -0.00250002 0 -0.0404866 -7.17882e-22 0 2.63222e-12 0 1.49906e-28
613 5 0.001 -0.00250002 0 -0.039849 -7.17882e-22 0 -4.01109e-12 0 3.48697e-28
762 6 0.001 0.00250002 0 -0.0404866 7.17882e-22 0 2.63222e-12 0 1.49906e-28
763 6 0.001 0.00250002 0 -0.039849 7.17882e-22 0 -4.01109e-12 0 3.48697e-28
912 7 0.001 0.00749998 0 -0.0404866 -7.17882e-22 0 2.63222e-12 0 1.49906e-28
913 7 0.001 0.00749998 0 -0.039849 -7.17882e-22 0 -4.01109e-12 0 3.48697e-28
1062 8 0.001 0.0125 0 -0.0404866 7.17882e-22 0 2.63222e-12 0 1.49906e-28
1063 8 0.001 0.0125 0 -0.039849 7.17882e-22 0 -4.01109e-12 0 3.48697e-28
1212 9 0.001 0.0175 0 -0.0404866 -7.17882e-22 0 2.63222e-12 0 1.49906e-28
1213 9 0.001 0.0175 0 -0.039849 -7.17882e-22 0 -4.01109e-12 0 3.48697e-28
1362 10 0.001 0.0225 0 -0.0404866 -7.17882e-22 0 2.63222e-12 0 1.49906e-28
1363 10 0.001 0.0225 0 -0.039849 -7.17882e-22 0 -4.01109e-12 0 3.48697e-28
14 1 0.001 -0.0225 0 -0.0392114 7.17882e-22 0 4.13744e-12 0 3.65858e-28
15 1 0.001 -0.0225 0 -0.0385738 7.17882e-22 0 -2.29991e-12 0 1.35892e-28
16 1 0.001 -0.0225 0 -0.0379362 7.17882e-22 0 6.27851e-13 0 1.43704e-29
164 2 0.001 -0.0175 0 -0.0392114 7.17882e-22 0 4.13744e-12 0 3.65858e-28
165 2 0.001 -0.0175 0 -0.0385738 7.17882e-22 0 -2.29991e-12 0 1.35892e-28
166 2 0.001 -0.0175 0 -0.0379362 7.17882e-22 0 6.27851e-13 0 1.43704e-29
314 3 0.001 -0.0125 0 -0.0392114 -7.17882e-22 0 4.13744e-12 0 3.65858e-28
315 3 0.001 -0.0125 0 -0.0385738 -7.17882e-22 0 -2.29991e-12 0 1.35892e-28
316 3 0.001 -0.0125 0 -0.0379362 -7.17882e-22 0 6.27851e-13 0 1.43704e-29
464 4 0.001 -0.00750002 0 -0.0392114 -7.17882e-22 0 4.13744e-12 0 3.65858e-28
465 4 0.001 -0.00750002 0 -0.0385738 -7.17882e-22 0 -2.29991e-12 0 1.35892e-28
466 4 0.001 -0.00750002 0 -0.0379362 -7.17882e-22 0 6.27851e-13 0 1.43704e-29
614 5 0.001 -0.00250002 0 -0.0392114 -7.17882e-22 0 4.13744e-12 0 3.65858e-28
615 5 0.001 -0.00250002 0 -0.0385738 -7.17882e-22 0 -2.29991e-12 0 1.35892e-28
616 5 0.001 -0.00250002 0 -0.0379362 -7.17882e-22 0 6.27851e-13 0 1.43704e-29
764 6 0.001 0.00250002 0 -0.0392114 7.17882e-22 0 4.13744e-12 0 3.65858e-28
765 6 0.001 0.00250002 0 -0.0385738 7.17882e-22 0 -2.29991e-12 0 1.35892e-28
766 6 0.001 0.00250002 0 -0.0379362 7.17882e-22 0 6.27851e-13 0 1.43704e-29
914 7 0.001 0.00749998 0 -0.0392114 -7.17882e-22 0 4.13744e-12 0 3.65858e-28
915 7 0.001 0.00749998 0 -0.0385738 -7.17882e-22 0 -2.29991e-12 0 1.35892e-28
916 7 0.001 0.00749998 0 -0.0379362 -7.17882e-22 0 6.27851e-13 0 1.43704e-29
1064 8 0.001 0.0125 0 -0.0392114 7.17882e-22 0 4.13744e-12 0 3.65858e-28
1065 8 0.001 0.0125 0 -0.0385738 7.17882e-22 0 -2.29991e-12 0 1.35892e-28
1066 8 0.001 0.0125 0 -0.0379362 7.17882e-22 0 6.27851e-13 0 1.43704e-29
1214 9 0.001 0.0175 0 -0.0392114 -7.17882e-22 0 4.13744e-12 0 3.65858e-28
1215 9 0.001 0.0175 0 -0.0385738 -7.17882e-22 0 -2.29991e-12 0 1.35892e-28
1216 9 0.001 0.0175 0 -0.0379362 -7.17882e-22 0 6.27851e-13 0 1.43704e-29
1364 10 0.001 0.0225 0 -0.0392114 -7.17882e-22 0 4.13744e-12 0 3.65858e-28
1365 10 0.001 0.0225 0 -0.0385738 -7.17882e-22 0 -2.29991e-12 0 1.35892e-28
1366 10 0.001 0.0225 0 -0.0379362 -7.17882e-22 0 6.27851e-13 0 1.43704e-29
17 1 0.001 -0.0225 0 -0.0372987 7.17882e-22 0 -1.33762e-12 0 6.99454e-29
18 1 0.001 -0.0225 0 -0.0366611 7.17882e-22 0 1.21259e-12 0 7.01833e-29
167 2 0.001 -0.0175 0 -0.0372987 7.17882e-22 0 -1.33762e-12 0 6.99454e-29
168 2 0.001 -0.0175 0 -0.0366611 7.17882e-22 0 1.21259e-12 0 7.01833e-29
317 3 0.001 -0.0125 0 -0.0372987 -7.17882e-22 0 -1.33762e-12 0 6.99454e-29
318 3 0.001 -0.0125 0 -0.0366611 -7.17882e-22 0 1.21259e-12 0 7.01833e-29
467 4 0.001 -0.00750002 0 -0.0372987 -7.17882e-22 0 -1.33762e-12 0 6.99454e-29
468 4 0.001 -0.00750002 0 -0.0366611 -7.17882e-22 0 1.21259e-12 0 7.01833e-29
617 5 0.001 -0.00250002 0 -0.0372987 -7.17882e-22 0 -1.33762e-12 0 6.99454e-29
618 5 0.001 -0.00250002 0 -0.0366611 -7.17882e-22 0 1.21259e-12 0 7.01833e-29
767 6 0.001 0.00250002 0 -0.0372987 7.17882e-22 0 -1.33762e-12 0 6.99454e-29
768 6 0.001 0.00250002 0 -0.0366611 7.17882e-22 0 1.21259e-12 0 7.01833e-29
917 7 0.001 0.00749998 0 -0.0372987 -7.17882e-22 0 -1.33762e-12 0 6.99454e-29
918 7 0.001 0.00749998 0 -0.0366611 -7.17882e-22 0 1.21259e-12 0 7.01833e-29
1067 8 0.001 0.0125 0 -0.0372987 7.17882e-22 0 -1.33762e-12 0 6.99454e-29
1068 8 0.001 0.0125 0 -0.0366611 7.17882e-22 0 1.21259e-12 0 7.01833e-29
1217 9 0.001 0.0175 0 -0.0372987 -7.17882e-22 0 -1.33762e-12 0 6.99454e-29
1218 9 0.001 0.0175 0 -0.0366611 -7.17882e-22 0 1.21259e-12 0 7.01833e-29
1367 10 0.001 0.0225 0 -0.0372987 -7.17882e-22 0 -1.33762e-12 0 6.99454e-29
1368 10 0.001 0.0225 0 -0.0366611 -7.17882e-22 0 1.21259e-12 0 7.01833e-29
19 1 0.001 -0.0225 0 -0.0360235 7.17882e-22 0 5.47471e-12 0 1.20583e-27
20 1 0.001 -0.0225 0 -0.0353859 7.17882e-22 0 -1.22463e-11 0 3.1565e-27
169 2 0.001 -0.0175 0 -0.0360235 7.17882e-22 0 5.47471e-12 0 1.20583e-27
170 2 0.001 -0.0175 0 -0.0353859 7.17882e-22 0 -1.22463e-11 0 3.1565e-27
319 3 0.001 -0.0125 0 -0.0360235 -7.17882e-22 0 5.47471e-12 0 1.20583e-27
320 3 0.001 -0.0125 0 -0.0353859 -7.17882e-22 0 -1.22463e-11 0 3.1565e-27
469 4 0.001 -0.00750002 0 -0.0360235 -7.17882e-22 0 5.47471e-12 0 1.20583e-27
470 4 0.001 -0.00750002 0 -0.0353859 -7.17882e-22 0 -1.22463e-11 0 3.1565e-27
619 5 0.001 -0.00250002 0 -0.0360235 -7.17882e-22 0 5.47471e-12 0 1.20583e-27
620 5 0.001 -0.00250002 0 -0.0353859 -7.17882e-22 0 -1.22463e-11 0 3.1565e-27
769 6 0.001 0.00250002 0 -0.0360235 7.17882e-22 0 5.47471e-12 0 1.20583e-27
770 6 0.001 0.00250002 0 -0.0353859 7.17882e-22 0 -1.22463e-11 0 3.1565e-27
919 7 0.001 0.00749998 0 -0.0360235 -7.17882e-22 0 5.47471e-12 0 1.20583e-27
920 7 0.001 0.00749998 0 -0.0353859 -7.17882e-22 0 -1.22463e-11 0 3.1565e-27
1069 8 0.001 0.0125 0 -0.0360235 7.17882e-22 0 5.47471e-12 0 1.20583e-27
1070 8 0.001 0.0125 0 -0.0353859 7.17882e-22 0 -1.22463e-11 0 3.1565e-27
1219 9 0.001 0.0175 0 -0.0360235 -7.17882e-22 0 5.47471e-12 0 1.20583e-27
1220 9 0.001 0.0175 0 -0.0353859 -7.17882e-22 0 -1.22463e-11 0 3.1565e-27
1369 10 0.001 0.0225 0 -0.0360235 -7.17882e-22 0 5.47471e-12 0 1.20583e-27
1370 10 0.001 0.0225 0 -0.0353859 -7.17882e-22 0 -1.22463e-11 0 3.1565e-27
21 1 0.001 -0.0225 0 -0.0347483 7.17882e-22 0 7.31398e-12 0 1.95967e-27
22 1 0.001 -0.0225 0 -0.0341107 7.17882e-22 0 -2.08926e-12 0 1.19229e-28
23 1 0.001 -0.0225 0 -0.0334732 7.17882e-22 0 3.59377e-12 0 2.70356e-28
171 2 0.001 -0.0175 0 -0.0347483 7.17882e-22 0 7.31398e-12 0 1.95967e-27
172 2 0.001 -0.0175 0 -0.0341107 7.17882e-22 0 -2.08926e-12 0 1.19229e-28
173 2 0.001 -0.0175 0 -0.0334732 7.17882e-22 0 3.59377e-12 0 2.70356e-28
321 3 0.001 -0.0125 0 -0.0347483 -7.17882e-22 0 7.31398e-12 0 1.95967e-27
322 3 0.001 -0.0125 0 -0.0341107 -7.17882e-22 0 -2.08926e-12 0 1.19229e-28
323 3 0.001 -0.0125 0 -0.0334732 -7.17882e-22 0 3.59377e-12 0 2.70356e-28
471 4 0.001 -0.00750002 0 -0.0347483 -7.17882e-22 0 7.31398e-12 0 1.95967e-27
472 4 0.001 -0.00750002 0 -0.0341107 -7.17882e-22 0 -2.08926e-12 0 1.19229e-28
473 4 0.001 -0.00750002 0 -0.0334732 -7.17882e-22 0 3.59377e-12 0 2.70356e-28
621 5 0.001 -0.00250002 0 -0.0347483 -7.17882e-22 0 7.31398e-12 0 1.95967e-27
622 5 0.001 -0.00250002 0 -0.0341107 -7.17882e-22 0 -2.08926e-12 0 1.19229e-28
623 5 0.001 -0.00250002 0 -0.0334732 -7.17882e-22 0 3.59377e-12 0 2.70356e-28
771 6 0.001 0.00250002 0 -0.0347483 7.17882e-22 0 7.31398e-12 0 1.95967e-27
772 6 0.001 0.00250002 0 -0.0341107 7.17882e-22 0 -2.08926e-12 0 1.19229e-28
773 6 0.001 0.00250002 0 -0.0334732 7.17882e-22 0 3.59377e-12 0 2.70356e-28
921 7 0.001 0.00749998 0 -0.0347483 -7.17882e-22 0 7.31398e-12 0 1.95967e-27
922 7 0.001 0.00749998 0 -0.0341107 -7.17882e-22 0 -2.08926e-12 0 1.19229e-28
923 7 0.001 0.00749998 0 -0.0334732 -7.17882e-22 0 3.59377e-12 0 2.70356e-28
1071 8 0.001 0.0125 0 -0.0347483 7.17882e-22 0 7.31398e-12 0 1.95967e-27
1072 8 0.001 0.0125 0 -0.0341107 7.17882e-22 0 -2.08926e-12 0 1.19229e-28
1073 8 0.001 0.0125 0 -0.0334732 7.17882e-22 0 3.59377e-12 0 2.70356e-28
1221 9 0.001 0.0175 0 -0.0347483 -7.17882e-22 0 7.31398e-12 0 1.95967e-27
1222 9 0.001 0.0175 0 -0.0341107 -7.17882e-22 0 -2.08926e-12 0 1.19229e-28
1223 9 0.001 0.0175 0 -0.0334732 -7.17882e-22 0 3.59377e-12 0 2.70356e-28
1371 10 0.001 0.0225 0 -0.0347483 -7.17882e-22 0 7.31398e-12 0 1.95967e-27
1372 10 0.001 0.0225 0 -0.0341107 -7.17882e-22 0 -2.08926e-12 0 1.19229e-28
1373 10 0.001 0.0225 0 -0.0334732 -7.17882e-22 0 3.59377e-12 0 2.70356e-28
24 1 0.001 -0.0225 0 -0.0328356 7.17882e-22 0 -1.83803e-12 0 1.60457e-28
25 1 0.001 -0.0225 0 -0.032198 7.17882e-22 0 7.52357e-13 0 3.24604e-29
174 2 0.001 -0.0175 0 -0.0328356 7.17882e-22 0 -1.83803e-12 0 1.60457e-28
175 2 0.001 -0.0175 0 -0.032198 7.17882e-22 0 7.52357e-13 0 3.24604e-29
324 3 0.001 -0.0125 0 -0.0328356 -7.17882e-22 0 -1.83803e-12 0 1.60457e-28
325 3 0.001 -0.0125 0 -0.032198 -7.17882e-22 0 7.52357e-13 0 3.24604e-29
474 4 0.001 -0.00750002 0 -0.0328356 -7.17882e-22 0 -1.83803e-12 0 1.60457e-28
475 4 0.001 -0.00750002 0 -0.032198 -7.17882e-22 0 7.52357e-13 0 3.24604e-29
624 5 0.001 -0.00250002 0 -0.0328356 -7.17882e-22 0 -1.83803e-12 0 1.60457e-28
625 5 0.001 -0.00250002 0 -0.032198 -7.17882e-22 0 7.52357e-13 0 3.24604e-29
774 6 0.001 0.00250002 0 -0.0328356 7.17882e-22 0 -1.83803e-12 0 1.60457e-28
775 6 0.001 0.00250002 0 -0.032198 7.17882e-22 0 7.52357e-13 0 3.24604e-29
924 7 0.001 0.00749998 0 -0.0328356 -7.17882e-22 0 -1.83803e-12 0 1.60457e-28
925 7 0.001 0.00749998 0 -0.032198 -7.17882e-22 0 7.52357e-13 0 3.24604e-29
1074 8 0.001 0.0125 0 -0.0328356 7.17882e-22 0 -1.83803e-12 0 1.60457e-28
1075 8 0.001 0.0125 0 -0.032198 7.17882e-22 0 7.52357e-13 0 3.24604e-29
1224 9 0.001 0.0175 0 -0.0328356 -7.17882e-22 0 -1.83803e-12 0 1.60457e-28
1225 9 0.001 0.0175 0 -0.032198 -7.17882e-22 0 7.52357e-13 0 3.24604e-29
1374 10 0.001 0.0225 0 -0.0328356 -7.17882e-22 0 -1.83803e-12 0 1.60457e-28
1375 10 0.001 0.0225 0 -0.032198 -7.17882e-22 0 7.52357e-13 0 3.24604e-29
26 1 0.001 -0.0225 0 -0.0315604 7.17882e-22 0 2.06814e-12 0 3.91673e-28
27 1 0.001 -0.0225 0 -0.0309228 7.17882e-22 0 -5.41195e-12 0 6.12604e-28
176 2 0.001 -0.0175 0 -0.0315604 7.17882e-22 0 2.06814e-12 0 3.91673e-28
177 2 0.001 -0.0175 0 -0.0309228 7.17882e-22 0 -5.41195e-12 0 6.12604e-28
326 3 0.001 -0.0125 0 -0.0315604 -7.17882e-22 0 2.06814e-12 0 3.91673e-28
327 3 0.001 -0.0125 0 -0.0309228 -7.17882e-22 0 -5.41195e-12 0 6.12604e-28
476 4 0.001 -0.00750002 0 -0.0315604 -7.17882e-22 0 2.06814e-12 0 3.91673e-28
477 4 0.001 -0.00750002 0 -0.0309228 -7.17882e-22 0 -5.41195e-12 0 6.12604e-28
626 5 0.001 -0.00250002 0 -0.0315604 -7.17882e-22 0 2.06814e-12 0 3.91673e-28
627 5 0.001 -0.00250002 0 -0.0309228 -7.17882e-22 0 -5.41195e-12 0 6.12604e-28
776 6 0.001 0.00250002 0 -0.0315604 7.17882e-22 0 2.06814e-12 0 3.91673e-28
777 6 0.001 0.00250002 0 -0.0309228 7.17882e-22 0 -5.41195e-12 0 6.12604e-28
926 7 0.001 0.00749998 0 -0.0315604 -7.17882e-22 0 2.06814e-12 0 3.91673e-28
927 7 0.001 0.00749998 0 -0.0309228 -7.17882e-22 0 -5.41195e-12 0 6.12604e-28
1076 8 0.001 0.0125 0 -0.0315604 7.17882e-22 0 2.06814e-12 0 3.91673e-28
1077 8 0.001 0.0125 0 -0.0309228 7.17882e-22 0 -5.41195e-12 0 6.12604e-28
1226 9 0.001 0.0175 0 -0.0315604 -7.17882e-22 0 2.06814e-12 0 3.91673e-28
1227 9 0.001 0.0175 0 -0.0309228 -7.17882e-22 0 -5.41195e-12 0 6.12604e-28
1376 10 0.001 0.0225 0 -0.0315604 -7.17882e-22 0 2.06814e-12 0 3.91673e-28
1377 10 0.001 0.0225 0 -0.0309228 -7.17882e-22 0 -5.41195e-12 0 6.12604e-28
28 1 0.001 -0.0225 0 -0.0302852 7.17882e-22 0 2.04643e-12 0 2.60078e-28
29 1 0.001 -0.0225 0 -0.0296477 7.17882e-22 0 -1.21032e-12 0 1.17849e-28
30 1 0.001 -0.0225 0 -0.0290101 7.17882e-22 0 3.98946e-12 0 3.41573e-28
178 2 0.001 -0.0175 0 -0.0302852 7.17882e-22 0 2.04643e-12 0 2.60078e-28
179 2 0.001 -0.0175 0 -0.0296477 7.17882e-22 0 -1.21032e-12 0 1.17849e-28
180 2 0.001 -0.0175 0 -0.0290101 7.17882e-22 0 3.98946e-12 0 3.41573e-28
328 3 0.001 -0.0125 0 -0.0302852 -7.17882e-22 0 2.04643e-12 0 2.60078e-28
329 3 0.001 -0.0125 0 -0.0296477 -7.17882e-22 0 -1.21032e-12 0 1.17849e-28
330 3 0.001 -0.0125 0 -0.0290101 -7.17882e-22 0 3.98946e-12 0 3.41573e-28
478 4 0.001 -0.00750002 0 -0.0302852 -7.17882e-22 0 2.04643e-12 0 2.60078e-28
479 4 0.001 -0.00750002 0 -0.0296477 -7.17882e-22 0 -1.21032e-12 0 1.17849e-28
480 4 0.001 -0.00750002 0 -0.0290101 -7.17882e-22 0 3.98946e-12 0 3.41573e-28
628 5 0.001 -0.00250002 0 -0.0302852 -7.17882e-22 0 2.04643e-12 0 2.60078e-28
629 5 0.001 -0.00250002 0 -0.0296477 -7.17882e-22 0 -1.21032e-12 0 1.17849e-28
630 5 0.001 -0.00250002 0 -0.0290101 -7.17882e-22 0 3.98946e-12 0 3.41573e-28
778 6 0.001 0.00250002 0 -0.0302852 7.17882e-22 0 2.04643e-12 0 2.60078e-28
779 6 0.001 0.00250002 0 -0.0296477 7.17882e-22 0 -1.21032e-12 0 1.17849e-28
780 6 0.001 0.00250002 0 -0.0290101 7.17882e-22 0 3.98946e-12 0 3.41573e-28
928 7 0.001 0.00749998 0 -0.0302852 -7.17882e-22 0 2.04643e-12 0 2.60078e-28
929 7 0.001 0.00749998 0 -0.0296477 -7.17882e-22 0 -1.21032e-12 0 1.17849e-28
930 7 0.001 0.00749998 0 -0.0290101 -7.17882e-22 0 3.98946e-12 0 3.41573e-28
1078 8 0.001 0.0125 0 -0.0302852 7.17882e-22 0 2.04643e-12 0 2.60078e-28
1079 8 0.001 0.0125 0 -0.0296477 7.17882e-22 0 -1.21032e-12 0 1.17849e-28
1080 8 0.001 0.0125 0 -0.0290101 7.17882e-22 0 3.98946e-12 0 3.41573e-28
1228 9 0.001 0.0175 0 -0.0302852 -7.17882e-22 0 2.04643e-12 0 2.60078e-28
1229 9 0.001 0.0175 0 -0.0296477 -7.17882e-22 0 -1.21032e-12 0 1.17849e-28
1230 9 0.001 0.0175 0 -0.0290101 -7.17882e-22 0 3.98946e-12 0 3.41573e-28
1378 10 0.001 0.0225 0 -0.0302852 -7.17882e-22 0 2.04643e-12 0 2.60078e-28
1379 10 0.001 0.0225 0 -0.0296477 -7.17882e-22 0 -1.21032e-12 0 1.17849e-28
1380 10 0.001 0.0225 0 -0.0290101 -7.17882e-22 0 3.98946e-12 0 3.41573e-28
31 1 0.001 -0.0225 0 -0.0283725 7.17882e-22 0 -2.84005e-12 0 2.40708e-28
32 1 0.001 -0.0225 0 -0.0277349 7.17882e-22 0 1.6906e-12 0 7.04382e-29
181 2 0.001 -0.0175 0 -0.0283725 7.17882e-22 0 -2.84005e-12 0 2.40708e-28
182 2 0.001 -0.0175 0 -0.0277349 7.17882e-22 0 1.6906e-12 0 7.04382e-29
331 3 0.001 -0.0125 0 -0.0283725 -7.17882e-22 0 -2.84005e-12 0 2.40708e-28
332 3 0.001 -0.0125 0 -0.0277349 -7.17882e-22 0 1.6906e-12 0 7.04382e-29
481 4 0.001 -0.00750002 0 -0.0283725 -7.17882e-22 0 -2.84005e-12 0 2.40708e-28
482 4 0.001 -0.00750002 0 -0.0277349 -7.17882e-22 0 1.6906e-12 0 7.04382e-29
631 5 0.001 -0.00250002 0 -0.0283725 -7.17882e-22 0 -2.84005e-12 0 2.40708e-28
632 5 0.001 -0.00250002 0 -0.0277349 -7.17882e-22 0 1.6906e-12 0 7.04382e-29
781 6 0.001 0.00250002 0 -0.0283725 7.17882e-22 0 -2.84005e-12 0 2.40708e-28
782 6 0.001 0.00250002 0 -0.0277349 7.17882e-22 0 1.6906e-12 0 7.04382e-29
931 7 0.001 0.00749998 0 -0.0283725 -7.17882e-22 0 -2.84005e-12 0 2.40708e-28
932 7 0.001 0.00749998 0 -0.0277349 -7.17882e-22 0 1.6906e-12 0 7.04382e-29
1081 8 0.001 0.0125 0 -0.0283725 7.17882e-22 0 -2.84005e-12 0 2.40708e-28
1082 8 0.001 0.0125 0 -0.0277349 7.17882e-22 0 1.6906e-12 0 7.04382e-29
1231 9 0.001 0.0175 0 -0.0283725 -7.17882e-22 0 -2.84005e-12 0 2.40708e-28
1232 9 0.001 0.0175 0 -0.0277349 -7.17882e-22 0 1.6906e-12 0 7.04382e-29
1381 10 0.001 0.0225 0 -0.0283725 -7.17882e-22 0 -2.84005e-12 0 2.40708e-28
1382 10 0.001 0.0225 0 -0.0277349 -7.17882e-22 0 1.6906e-12 0 7.04382e-29
33 1 0.001 -0.0225 0 -0.0270973 7.17882e-22 0 -5.84947e-12 0 9.54751e-28
34 1 0.001 -0.0225 0 -0.0264597 7.17882e-22 0 6.81127e-12 0 1.08965e-27
35 1 0.001 -0.0225 0 -0.0258221 7.17882e-22 0 -9.2043e-13 0 2.60719e-28
183 2 0.001 -0.0175 0 -0.0270973 7.17882e-22 0 -5.84947e-12 0 9.54751e-28
184 2 0.001 -0.0175 0 -0.0264597 7.17882e-22 0 6.81127e-12 0 1.08965e-27
185 2 0.001 -0.0175 0 -0.0258221 7.17882e-22 0 -9.2043e-13 0 2.60719e-28
333 3 0.001 -0.0125 0 -0.0270973 -7.17882e-22 0 -5.84947e-12 0 9.54751e-28
334 3 0.001 -0.0125 0 -0.0264597 -7.17882e-22 0 6.81127e-12 0 1.08965e-27
335 3 0.001 -0.0125 0 -0.0258221 -7.17882e-22 0 -9.2043e-13 0 2.60719e-28
483 4 0.001 -0.00750002 0 -0.0270973 -7.17882e-22 0 -5.84947e-12 0 9.54751e-28
484 4 0.001 -0.00750002 0 -0.0264597 -7.17882e-22 0 6.81127e-12 0 1.08965e-27
485 4 0.001 -0.00750002 0 -0.0258221 -7.17882e-22 0 -9.2043e-13 0 2.60719e-28
633 5 0.001 -0.00250002 0 -0.0270973 -7.17882e-22 0 -5.84947e-12 0 9.54751e-28
634 5 0.001 -0.00250002 0 -0.0264597 -7.17882e-22 0 6.81127e-12 0 1.08965e-27
635 5 0.001 -0.00250002 0 -0.0258221 -7.17882e-22 0 -9.2043e-13 0 2.60719e-28
783 6 0.001 0.00250002 0 -0.0270973 7.17882e-22 0 -5.84947e-12 0 9.54751e-28
784 6 0.001 0.00250002 0 -0.0264597 7.17882e-22 0 6.81127e-12 0 1.08965e-27
785 6 0.001 0.00250002 0 -0.0258221 7.17882e-22 0 -9.2043e-13 0 2.60719e-28
933 7 0.001 0.00749998 0 -0.0270973 -7.17882e-22 0 -5.84947e-12 0 9.54751e-28
934 7 0.001 0.00749998 0 -0.0264597 -7.17882e-22 0 6.81127e-12 0 1.08965e-27
935 7 0.001 0.00749998 0 -0.0258221 -7.17882e-22 0 -9.2043e-13 0 2.60719e-28
1083 8 0.001 0.0125 0 -0.0270973 7.17882e-22 0 -5.84947e-12 0 9.54751e-28
1084 8 0.001 0.0125 0 -0.0264597 7.17882e-22 0 6.81127e-12 0 1.08965e-27
1085 8 0.001 0.0125 0 -0.0258221 7.17882e-22 0 -9.2043e-13 0 2.60719e-28
1233 9 0.001 0.0175 0 -0.0270973 -7.17882e-22 0 -5.84947e-12 0 9.54751e-28
1234 9 0.001 0.0175 0 -0.0264597 -7.17882e-22 0 6.81127e-12 0 1.08965e-27
1235 9 0.001 0.0175 0 -0.0258221 -7.17882e-22 0 -9.2043e-13 0 2.60719e-28
1383 10 0.001 0.0225 0 -0.0270973 -7.17882e-22 0 -5.84947e-12 0 9.54751e-28
1384 10 0.001 0.0225 0 -0.0264597 -7.17882e-22 0 6.81127e-12 0 1.08965e-27
1385 10 0.001 0.0225 0 -0.0258221 -7.17882e-22 0 -9.2043e-13 0 2.60719e-28
36 1 0.001 -0.0225 0 -0.0251846 7.17882e-22 0 -3.07049e-12 0 2.02519e-28
37 1 0.001 -0.0225 0 -0.024547 7.17882e-22 0 5.1407e-12 0 5.9513e-28
186 2 0.001 -0.0175 0 -0.0251846 7.17882e-22 0 -3.07049e-12 0 2.02519e-28
187 2 0.001 -0.0175 0 -0.024547 7.17882e-22 0 5.1407e-12 0 5.9513e-28
336 3 0.001 -0.0125 0 -0.0251846 -7.17882e-22 0 -3.07049e-12 0 2.02519e-28
337 3 0.001 -0.0125 0 -0.024547 -7.17882e-22 0 5.1407e-12 0 5.9513e-28
486 4 0.001 -0.00750002 0 -0.0251846 -7.17882e-22 0 -3.07049e-12 0 2.02519e-28
487 4 0.001 -0.00750002 0 -0.024547 -7.17882e-22 0 5.1407e-12 0 5.9513e-28
636 5 0.001 -0.00250002 0 -0.0251846 -7.17882e-22 0 -3.07049e-12 0 2.02519e-28
637 5 0.001 -0.00250002 0 -0.024547 -7.17882e-22 0 5.1407e-12 0 5.9513e-28
786 6 0.001 0.00250002 0 -0.0251846 7.17882e-22 0 -3.07049e-12 0 2.02519e-28
787 6 0.001 0.00250002 0 -0.024547 7.17882e-22 0 5.1407e-12 0 5.9513e-28
936 7 0.001 0.00749998 0 -0.0251846 -7.17882e-22 0 -3.07049e-12 0 2.02519e-28
937 7 0.001 0.00749998 0 -0.024547 -7.17882e-22 0 5.1407e-12 0 5.9513e-28
1086 8 0.001 0.0125 0 -0.0251846 7.17882e-22 0 -3.07049e-12 0 2.02519e-28
1087 8 0.001 0.0125 0 -0.024547 7.17882e-22 0 5.1407e-12 0 5.9513e-28
1236 9 0.001 0.0175 0 -0.0251846 -7.17882e-22 0 -3.07049e-12 0 2.02519e-28
1237 9 0.001 0.0175 0 -0.024547 -7.17882e-22 0 5.1407e-12 0 5.9513e-28
1386 10 0.001 0.0225 0 -0.0251846 -7.17882e-22 0 -3.07049e-12 0 2.02519e-28
1387 10 0.001 0.0225 0 -0.024547 -7.17882e-22 0 5.1407e-12 0 5.9513e-28
38 1 0.001 -0.0225 0 -0.0239094 7.17882e-22 0 -5.34888e-12 0 6.28512e-28
39 1 0.001 -0.0225 0 -0.0232718 7.17882e-22 0 2.35929e-12 0 1.75444e-28
188 2 0.001 -0.0175 0 -0.0239094 7.17882e-22 0 -5.34888e-12 0 6.28512e-28
189 2 0.001 -0.0175 0 -0.0232718 7.17882e-22 0 2.35929e-12 0 1.75444e-28
338 3 0.001 -0.0125 0 -0.0239094 -7.17882e-22 0 -5.34888e-12 0 6.28512e-28
339 3 0.001 -0.0125 0 -0.0232718 -7.17882e-22 0 2.35929e-12 0 1.75444e-28
488 4 0.001 -0.00750002 0 -0.0239094 -7.17882e-22 0 -5.34888e-12 0 6.28512e-28
489 4 0.001 -0.00750002 0 -0.0232718 -7.17882e-22 0 2.35929e-12 0 1.75444e-28
638 5 0.001 -0.00250002 0 -0.0239094 -7.17882e-22 0 -5.34888e-12 0 6.28512e-28
639 5 0.001 -0.00250002 0 -0.0232718 -7.17882e-22 0 2.35929e-12 0 1.75444e-28
788 6 0.001 0.00250002 0 -0.0239094 7.17882e-22 0 -5.34888e-12 0 6.28512e-28
789 6 0.001 0.00250002 0 -0.0232718 7.17882e-22 0 2.35929e-12 0 1.75444e-28
938 7 0.001 0.00749998 0 -0.0239094 -7.17882e-22 0 -5.34888e-12 0 6.28512e-28
939 7 0.001 0.00749998 0 -0.0232718 -7.17882e-22 0 2.35929e-12 0 1.75444e-28
1088 8 0.001 0.0125 0 -0.0239094 7.17882e-22 0 -5.34888e-12 0 6.28512e-28
1089 8 0.001 0.0125 0 -0.0232718 7.17882e-22 0 2.35929e-12 0 1.75444e-28
1238 9 0.001 0.0175 0 -0.0239094 -7.17882e-22 0 -5.34888e-12 0 6.28512e-28
1239 9 0.001 0.0175 0 -0.0232718 -7.17882e-22 0 2.35929e-12 0 1.75444e-28
1388 10 0.001 0.0225 0 -0.0239094 -7.17882e-22 0 -5.34888e-12 0 6.28512e-28
1389 10 0.001 0.0225 0 -0.0232718 -7.17882e-22 0 2.35929e-12 0 1.75444e-28
40 1 0.001 -0.0225 0 -0.0226342 7.17882e-22 0 -8.96561e-13 0 1.78899e-29
41 1 0.001 -0.0225 0 -0.0219966 7.17882e-22 0 2.611e-12 0 1.87034e-28
42 1 0.001 -0.0225 0 -0.0213591 7.17882e-22 0 -6.41434e-12 0 9.66116e-28
190 2 0.001 -0.0175 0 -0.0226342 7.17882e-22 0 -8.96561e-13 0 1.78899e-29
191 2 0.001 -0.0175 0 -0.0219966 7.17882e-22 0 2.611e-12 0 1.87034e-28