ITEM: TIMESTEP
1000000
ITEM: NUMBER OF ATOMS
1500
ITEM: BOX BOUNDS ff ff ff
-2.5000000000000001e-02 2.5000000000000001e-02
-5.0000000000000001e-03 5.0000000000000001e-03
-5.0000000000000003e-02 5.0000000000000003e-02
ITEM: ATOMS id type radius x y z fx fy fz c_bendingE c_stretchingE
1 1 0.001 -0.0225 0 -0.0475 1.49222e-18 0 -1.33976e-12 0 7.44536e-29
151 2 0.001 -0.0175 0 -0.0475 1.49222e-18 0 -1.33976e-12 0 7.44536e-29
301 3 0.001 -0.0125 0 -0.0475 -1.49222e-18 0 -1.33976e-12 0 7.44536e-29
451 4 0.001 -0.00750001 0 -0.0475 -1.49222e-18 0 -1.33976e-12 0 7.44536e-29
601 5 0.001 -0.00250001 0 -0.0475 -1.49222e-18 0 -1.33976e-12 0 7.44536e-29
751 6 0.001 0.00250001 0 -0.0475 1.49222e-18 0 -1.33976e-12 0 7.44536e-29
901 7 0.001 0.00749999 0 -0.0475 -1.49222e-18 0 -1.33976e-12 0 7.44536e-29
1051 8 0.001 0.0125 0 -0.0475 1.49222e-18 0 -1.33976e-12 0 7.44536e-29
1201 9 0.001 0.0175 0 -0.0475 -1.49222e-18 0 -1.33976e-12 0 7.44536e-29
1351 10 0.001 0.0225 0 -0.0475 -1.49222e-18 0 -1.33976e-12 0 7.44536e-29
2 1 0.001 -0.0225 0 -0.0468624 1.49222e-18 0 6.97956e-12 0 1.39478e-27
3 1 0.001 -0.0225 0 -0.0462248 1.49222e-18 0 -1.32479e-11 0 3.72292e-27
4 1 0.001 -0.0225 0 -0.0455872 1.49222e-18 0 1.04897e-11 0 2.74728e-27
152 2 0.001 -0.0175 0 -0.0468624 1.49222e-18 0 6.97956e-12 0 1.39478e-27
153 2 0.001 -0.0175 0 -0.0462248 1.49222e-18 0 -1.32479e-11 0 3.72292e-27
154 2 0.001 -0.0175 0 -0.0455872 1.49222e-18 0 1.04897e-11 0 2.74728e-27
302 3 0.001 -0.0125 0 -0.0468624 -1.49222e-18 0 6.97956e-12 0 1.39478e-27
303 3 0.001 -0.0125 0 -0.0462248 -1.49222e-18 0 -1.32479e-11 0 3.72292e-27
304 3 0.001 -0.0125 0 -0.0455872 -1.49222e-18 0 1.04897e-11 0 2.74728e-27
452 4 0.001 -0.00750001 0 -0.0468624 -1.49222e-18 0 6.97956e-12 0 1.39478e-27
453 4 0.001 -0.00750001 0 -0.0462248 -1.49222e-18 0 -1.32479e-11 0 3.72292e-27
454 4 0.001 -0.00750001 0 -0.0455872 -1.49222e-18 0 1.04897e-11 0 2.74728e-27
602 5 0.001 -0.00250001 0 -0.0468624 -1.49222e-18 0 6.97956e-12 0 1.39478e-27
603 5 0.001 -0.00250001 0 -0.0462248 -1.49222e-18 0 -1.32479e-11 0 3.72292e-27
604 5 0.001 -0.00250001 0 -0.0455872 -1.49222e-18 0 1.04897e-11 0 2.74728e-27
752 6 0.001 0.00250001 0 -0.0468624 1.49222e-18 0 6.97956e-12 0 1.39478e-27
753 6 0.001 0.00250001 0 -0.0462248 1.49222e-18 0 -1.32479e-11 0 3.72292e-27
754 6 0.001 0.00250001 0 -0.0455872 1.49222e-18 0 1.04897e-11 0 2.74728e-27
902 7 0.001 0.00749999 0 -0.0468624 -1.49222e-18 0 6.97956e-12 0 1.39478e-27
903 7 0.001 0.00749999 0 -0.0462248 -1.49222e-18 0 -1.32479e-11 0 3.72292e-27
904 7 0.001 0.00749999 0 -0.0455872 -1.49222e-18 0 1.04897e-11 0 2.74728e-27
1052 8 0.001 0.0125 0 -0.0468624 1.49222e-18 0 6.97956e-12 0 1.39478e-27
1053 8 0.001 0.0125 0 -0.0462248 1.49222e-18 0 -1.32479e-11 0 3.72292e-27
1054 8 0.001 0.0125 0 -0.0455872 1.49222e-18 0 1.04897e-11 0 2.74728e-27
1202 9 0.001 0.0175 0 -0.0468624 -1.49222e-18 0 6.97956e-12 0 1.39478e-27
1203 9 0.001 0.0175 0 -0.0462248 -1.49222e-18 0 -1.32479e-11 0 3.72292e-27
1204 9 0.001 0.0175 0 -0.0455872 -1.49222e-18 0 1.04897e-11 0 2.74728e-27
1352 10 0.001 0.0225 0 -0.0468624 -1.49222e-18 0 6.97956e-12 0 1.39478e-27
1353 10 0.001 0.0225 0 -0.0462248 -1.49222e-18 0 -1.32479e-11 0 3.72292e-27
1354 10 0.001 0.0225 0 -0.0455872 -1.49222e-18 0 1.04897e-11 0 2.74728e-27
5 1 0.001 -0.0225 0 -0.0449497 1.49222e-18 0 -6.64531e-12 0 9.32515e-28
6 1 0.001 -0.0225 0 -0.0443121 1.49222e-18 0 8.10714e-12 0 1.37124e-27
155 2 0.001 -0.0175 0 -0.0449497 1.49222e-18 0 -6.64531e-12 0 9.32515e-28
156 2 0.001 -0.0175 0 -0.0443121 1.49222e-18 0 8.10714e-12 0 1.37124e-27
305 3 0.001 -0.0125 0 -0.0449497 -1.49222e-18 0 -6.64531e-12 0 9.32515e-28
306 3 0.001 -0.0125 0 -0.0443121 -1.49222e-18 0 8.10714e-12 0 1.37124e-27
455 4 0.001 -0.00750001 0 -0.0449497 -1.49222e-18 0 -6.64531e-12 0 9.32515e-28
456 4 0.001 -0.00750001 0 -0.0443121 -1.49222e-18 0 8.10714e-12 0 1.37124e-27
605 5 0.001 -0.00250001 0 -0.0449497 -1.49222e-18 0 -6.64531e-12 0 9.32515e-28
606 5 0.001 -0.00250001 0 -0.0443121 -1.49222e-18 0 8.10714e-12 0 1.37124e-27
755 6 0.001 0.00250001 0 -0.0449497 1.49222e-18 0 -6.64531e-12 0 9.32515e-28
756 6 0.001 0.00250001 0 -0.0443121 1.49222e-18 0 8.10714e-12 0 1.37124e-27
905 7 0.001 0.00749999 0 -0.0449497 -1.49222e-18 0 -6.64531e-12 0 9.32515e-28
906 7 0.001 0.00749999 0 -0.0443121 -1.49222e-18 0 8.10714e-12 0 1.37124e-27
1055 8 0.001 0.0125 0 -0.0449497 1.49222e-18 0 -6.64531e-12 0 9.32515e-28
1056 8 0.001 0.0125 0 -0.0443121 1.49222e-18 0 8.10714e-12 0 1.37124e-27
1205 9 0.001 0.0175 0 -0.0449497 -1.49222e-18 0 -6.64531e-12 0 9.32515e-28
1206 9 0.001 0.0175 0 -0.0443121 -1.49222e-18 0 8.10714e-12 0 1.37124e-27
1355 10 0.001 0.0225 0 -0.0449497 -1.49222e-18 0 -6.64531e-12 0 9.32515e-28
1356 10 0.001 0.0225 0 -0.0443121 -1.49222e-18 0 8.10714e-12 0 1.37124e-27
7 1 0.001 -0.0225 0 -0.0436745 1.49222e-18 0 -5.01458e-12 0 8.02079e-28
8 1 0.001 -0.0225 0 -0.0430369 1.49222e-18 0 1.79716e-12 0 7.13342e-29
157 2 0.001 -0.0175 0 -0.0436745 1.49222e-18 0 -5.01458e-12 0 8.02079e-28
158 2 0.001 -0.0175 0 -0.0430369 1.49222e-18 0 1.79716e-12 0 7.13342e-29
307 3 0.001 -0.0125 0 -0.0436745 -1.49222e-18 0 -5.01458e-12 0 8.02079e-28
308 3 0.001 -0.0125 0 -0.0430369 -1.49222e-18 0 1.79716e-12 0 7.13342e-29
457 4 0.001 -0.00750001 0 -0.0436745 -1.49222e-18 0 -5.01458e-12 0 8.02079e-28
458 4 0.001 -0.00750001 0 -0.0430369 -1.49222e-18 0 1.79716e-12 0 7.13342e-29
607 5 0.001 -0.00250001 0 -0.0436745 -1.49222e-18 0 -5.01458e-12 0 8.02079e-28
608 5 0.001 -0.00250001 0 -0.0430369 -1.49222e-18 0 1.79716e-12 0 7.13342e-29
757 6 0.001 0.00250001 0 -0.0436745 1.49222e-18 0 -5.01458e-12 0 8.02079e-28
758 6 0.001 0.00250001 0 -0.0430369 1.49222e-18 0 1.79716e-12 0 7.13342e-29
907 7 0.001 0.00749999 0 -0.0436745 -1.49222e-18 0 -5.01458e-12 0 8.02079e-28
908 7 0.001 0.00749999 0 -0.0430369 -1.49222e-18 0 1.79716e-12 0 7.13342e-29
1057 8 0.001 0.0125 0 -0.0436745 1.49222e-18 0 -5.01458e-12 0 8.02079e-28
1058 8 0.001 0.0125 0 -0.0430369 1.49222e-18 0 1.79716e-12 0 7.13342e-29
1207 9 0.001 0.0175 0 -0.0436745 -1.49222e-18 0 -5.01458e-12 0 8.02079e-28
1208 9 0.001 0.0175 0 -0.0430369 -1.49222e-18 0 1.79716e-12 0 7.13342e-29
1357 10 0.001 0.0225 0 -0.0436745 -1.49222e-18 0 -5.01458e-12 0 8.02079e-28
1358 10 0.001 0.0225 0 -0.0430369 -1.49222e-18 0 1.79716e-12 0 7.13342e-29
9 1 0.001 -0.0225 0 -0.0423993 1.49222e-18 0 -2.79907e-12 0 1.68932e-28
10 1 0.001 -0.0225 0 -0.0417617 1.49222e-18 0 1.66998e-12 0 1.16266e-28
11 1 0.001 -0.0225 0 -0.0411242 1.49222e-18 0 1.50414e-12 0 9.37105e-29
159 2 0.001 -0.0175 0 -0.0423993 1.49222e-18 0 -2.79907e-12 0 1.68932e-28
160 2 0.001 -0.0175 0 -0.0417617 1.49222e-18 0 1.66998e-12 0 1.16266e-28
161 2 0.001 -0.0175 0 -0.0411242 1.49222e-18 0 1.50414e-12 0 9.37105e-29
309 3 0.001 -0.0125 0 -0.0423993 -1.49222e-18 0 -2.79907e-12 0 1.68932e-28
310 3 0.001 -0.0125 0 -0.0417617 -1.49222e-18 0 1.66998e-12 0 1.16266e-28
311 3 0.001 -0.0125 0 -0.0411242 -1.49222e-18 0 1.50414e-12 0 9.37105e-29
459 4 0.001 -0.00750001 0 -0.0423993 -1.49222e-18 0 -2.79907e-12 0 1.68932e-28
460 4 0.001 -0.00750001 0 -0.0417617 -1.49222e-18 0 1.66998e-12 0 1.16266e-28
461 4 0.001 -0.00750001 0 -0.0411242 -1.49222e-18 0 1.50414e-12 0 9.37105e-29
609 5 0.001 -0.00250001 0 -0.0423993 -1.49222e-18 0 -2.79907e-12 0 1.68932e-28
610 5 0.001 -0.00250001 0 -0.0417617 -1.49222e-18 0 1.66998e-12 0 1.16266e-28
611 5 0.001 -0.00250001 0 -0.0411242 -1.49222e-18 0 1.50414e-12 0 9.37105e-29
759 6 0.001 0.00250001 0 -0.0423993 1.49222e-18 0 -2.79907e-12 0 1.68932e-28
760 6 0.001 0.00250001 0 -0.0417617 1.49222e-18 0 1.66998e-12 0 1.16266e-28
761 6 0.001 0.00250001 0 -0.0411242 1.49222e-18 0 1.50414e-12 0 9.37105e-29
909 7 0.001 0.00749999 0 -0.0423993 -1.49222e-18 0 -2.79907e-12 0 1.68932e-28
910 7 0.001 0.00749999 0 -0.0417617 -1.49222e-18 0 1.66998e-12 0 1.16266e-28
911 7 0.001 0.00749999 0 -0.0411242 -1.49222e-18 0 1.50414e-12 0 9.37105e-29
1059 8 0.001 0.0125 0 -0.0423993 1.49222e-18 0 -2.79907e-12 0 1.68932e-28
1060 8 0.001 0.0125 0 -0.0417617 1.49222e-18 0 1.66998e-12 0 1.16266e-28
1061 8 0.001 0.0125 0 -0.0411242 1.49222e-18 0 1.50414e-12 0 9.37105e-29
1209 9 0.001 0.0175 0 -0.0423993 -1.49222e-18 0 -2.79907e-12 0 1.68932e-28
1210 9 0.001 0.0175 0 -0.0417617 -1.49222e-18 0 1.66998e-12 0 1.16266e-28
1211 9 0.001 0.0175 0 -0.0411242 -1.49222e-18 0 1.50414e-12 0 9.37105e-29
1359 10 0.001 0.0225 0 -0.0423993 -1.49222e-18 0 -2.79907e-12 0 1.68932e-28
1360 10 0.001 0.0225 0 -0.0417617 -1.49222e-18 0 1.66998e-12 0 1.16266e-28
1361 10 0.001 0.0225 0 -0.0411242 -1.49222e-18 0 1.50414e-12 0 9.37105e-29
12 1 0.001 -0.0225 0 -0.0404866 1.49222e-18 0 -4.42923e-12 0 4.49417e-28
13 1 0.001 -0.0225 0 -0.039849 1.49222e-18 0 1.71324e-12 0 4.16873e-28
162 2 0.001 -0.0175 0 -0.0404866 1.49222e-18 0 -4.42923e-12 0 4.49417e-28
163 2 0.001 -0.0175 0 -0.039849 1.49222e-18 0 1.71324e-12 0 4.16873e-28
312 3 0.001 -0.0125 0 -0.0404866 -1.49222e-18 0 -4.42923e-12 0 4.49417e-28
313 3 0.001 -0.0125 0 -0.039849 -1.49222e-18 0 1.71324e-12 0 4.16873e-28
462 4 0.001 -0.00750001 0 -0.0404866 -1.49222e-18 0 -4.42923e-12 0 4.49417e-28
463 4 0.001 -0.00750001 0 -0.039849 -1.49222e-18 0 1.71324e-12 0 4.16873e-28
612 5 0.001 -0.00250001 0 -0.0404866 -1.49222e-18 0 -4.42923e-12 0 4.49417e-28
613 5 0.001 -0.00250001 0 -0.039849 -1.49222e-18 0 1.71324e-12 0 4.16873e-28
762 6 0.001 0.00250001 0 -0.0404866 1.49222e-18 0 -4.42923e-12 0 4.49417e-28
763 6 0.001 0.00250001 0 -0.039849 1.49222e-18 0 1.71324e-12 0 4.16873e-28
912 7 0.001 0.00749999 0 -0.0404866 -1.49222e-18 0 -4.42923e-12 0 4.49417e-28
913 7 0.001 0.00749999 0 -0.039849 -1.49222e-18 0 1.71324e-12 0 4.16873e-28
1062 8 0.001 0.0125 0 -0.0404866 1.49222e-18 0 -4.42923e-12 0 4.49417e-28
1063 8 0.001 0.0125 0 -0.039849 1.49222e-18 0 1.71324e-12 0 4.16873e-28
1212 9 0.001 0.0175 0 -0.0404866 -1.49222e-18 0 -4.42923e-12 0 4.49417e-28
1213 9 0.001 0.0175 0 -0.039849 -1.49222e-18 0 1.71324e-12 0 4.16873e-28
1362 10 0.001 0.0225 0 -0.0404866 -1.49222e-18 0 -4.42923e-12 0 4.49417e-28
1363 10 0.001 0.0225 0 -0.039849 -1.49222e-18 0 1.71324e-12 0 4.16873e-28
14 1 0.001 -0.0225 0 -0.0392114 1.49222e-18 0 3.88759e-12 0 3.57675e-28
15 1 0.001 -0.0225 0 -0.0385738 1.49222e-18 0 -1.50399e-12 0 3.53156e-28
16 1 0.001 -0.0225 0 -0.0379362 1.49222e-18 0 -2.34127e-12 0 1.13674e-28
164 2 0.001 -0.0175 0 -0.0392114 1.49222e-18 0 3.88759e-12 0 3.57675e-28
165 2 0.001 -0.0175 0 -0.0385738 1.49222e-18 0 -1.50399e-12 0 3.53156e-28
166 2 0.001 -0.0175 0 -0.0379362 1.49222e-18 0 -2.34127e-12 0 1.13674e-28
314 3 0.001 -0.0125 0 -0.0392114 -1.49222e-18 0 3.88759e-12 0 3.57675e-28
315 3 0.001 -0.0125 0 -0.0385738 -1.49222e-18 0 -1.50399e-12 0 3.53156e-28
316 3 0.001 -0.0125 0 -0.0379362 -1.49222e-18 0 -2.34127e-12 0 1.13674e-28
464 4 0.001 -0.00750001 0 -0.0392114 -1.49222e-18 0 3.88759e-12 0 3.57675e-28
465 4 0.001 -0.00750001 0 -0.0385738 -1.49222e-18 0 -1.50399e-12 0 3.53156e-28
466 4 0.001 -0.00750001 0 -0.0379362 -1.49222e-18 0 -2.34127e-12 0 1.13674e-28
614 5 0.001 -0.00250001 0 -0.0392114 -1.49222e-18 0 3.88759e-12 0 3.57675e-28
615 5 0.001 -0.00250001 0 -0.0385738 -1.49222e-18 0 -1.50399e-12 0 3.53156e-28
616 5 0.001 -0.00250001 0 -0.0379362 -1.49222e-18 0 -2.34127e-12 0 1.13674e-28
764 6 0.001 0.00250001 0 -0.0392114 1.49222e-18 0 3.88759e-12 0 3.57675e-28
765 6 0.001 0.00250001 0 -0.0385738 1.49222e-18 0 -1.50399e-12 0 3.53156e-28
766 6 0.001 0.00250001 0 -0.0379362 1.49222e-18 0 -2.34127e-12 0 1.13674e-28
914 7 0.001 0.00749999 0 -0.0392114 -1.49222e-18 0 3.88759e-12 0 3.57675e-28
915 7 0.001 0.00749999 0 -0.0385738 -1.49222e-18 0 -1.50399e-12 0 3.53156e-28
916 7 0.001 0.00749999 0 -0.0379362 -1.49222e-18 0 -2.34127e-12 0 1.13674e-28
1064 8 0.001 0.0125 0 -0.0392114 1.49222e-18 0 3.88759e-12 0 3.57675e-28
1065 8 0.001 0.0125 0 -0.0385738 1.49222e-18 0 -1.50399e-12 0 3.53156e-28
1066 8 0.001 0.0125 0 -0.0379362 1.49222e-18 0 -2.34127e-12 0 1.13674e-28
1214 9 0.001 0.0175 0 -0.0392114 -1.49222e-18 0 3.88759e-12 0 3.57675e-28
1215 9 0.001 0.0175 0 -0.0385738 -1.49222e-18 0 -1.50399e-12 0 3.53156e-28
1216 9 0.001 0.0175 0 -0.0379362 -1.49222e-18 0 -2.34127e-12 0 1.13674e-28
1364 10 0.001 0.0225 0 -0.0392114 -1.49222e-18 0 3.88759e-12 0 3.57675e-28
1365 10 0.001 0.0225 0 -0.0385738 -1.49222e-18 0 -1.50399e-12 0 3.53156e-28
1366 10 0.001 0.0225 0 -0.0379362 -1.49222e-18 0 -2.34127e-12 0 1.13674e-28
17 1 0.001 -0.0225 0 -0.0372987 1.49222e-18 0 -1.2536e-13 0 1.26907e-28
18 1 0.001 -0.0225 0 -0.0366611 1.49222e-18 0 5.14087e-12 0 6.82861e-28
167 2 0.001 -0.0175 0 -0.0372987 1.49222e-18 0 -1.2536e-13 0 1.26907e-28
168 2 0.001 -0.0175 0 -0.0366611 1.49222e-18 0 5.14087e-12 0 6.82861e-28
317 3 0.001 -0.0125 0 -0.0372987 -1.49222e-18 0 -1.2536e-13 0 1.26907e-28
318 3 0.001 -0.0125 0 -0.0366611 -1.49222e-18 0 5.14087e-12 0 6.82861e-28
467 4 0.001 -0.00750001 0 -0.0372987 -1.49222e-18 0 -1.2536e-13 0 1.26907e-28
468 4 0.001 -0.00750001 0 -0.0366611 -1.49222e-18 0 5.14087e-12 0 6.82861e-28
617 5 0.001 -0.00250001 0 -0.0372987 -1.49222e-18 0 -1.2536e-13 0 1.26907e-28
618 5 0.001 -0.00250001 0 -0.0366611 -1.49222e-18 0 5.14087e-12 0 6.82861e-28
767 6 0.001 0.00250001 0 -0.0372987 1.49222e-18 0 -1.2536e-13 0 1.26907e-28
768 6 0.001 0.00250001 0 -0.0366611 1.49222e-18 0 5.14087e-12 0 6.82861e-28
917 7 0.001 0.00749999 0 -0.0372987 -1.49222e-18 0 -1.2536e-13 0 1.26907e-28
918 7 0.001 0.00749999 0 -0.0366611 -1.49222e-18 0 5.14087e-12 0 6.82861e-28
1067 8 0.001 0.0125 0 -0.0372987 1.49222e-18 0 -1.2536e-13 0 1.26907e-28
1068 8 0.001 0.0125 0 -0.0366611 1.49222e-18 0 5.14087e-12 0 6.82861e-28
1217 9 0.001 0.0175 0 -0.0372987 -1.49222e-18 0 -1.2536e-13 0 1.26907e-28
1218 9 0.001 0.0175 0 -0.0366611 -1.49222e-18 0 5.14087e-12 0 6.82861e-28
1367 10 0.001 0.0225 0 -0.0372987 -1.49222e-18 0 -1.2536e-13 0 1.26907e-28
1368 10 0.001 0.0225 0 -0.0366611 -1.49222e-18 0 5.14087e-12 0 6.82861e-28
19 1 0.001 -0.0225 0 -0.0360235 1.49222e-18 0 -6.26782e-12 0 8.57253e-28
20 1 0.001 -0.0225 0 -0.0353859 1.49222e-18 0 4.01064e-12 0 3.48697e-28
169 2 0.001 -0.0175 0 -0.0360235 1.49222e-18 0 -6.26782e-12 0 8.57253e-28
170 2 0.001 -0.0175 0 -0.0353859 1.49222e-18 0 4.01064e-12 0 3.48697e-28
319 3 0.001 -0.0125 0 -0.0360235 -1.49222e-18 0 -6.26782e-12 0 8.57253e-28
320 3 0.001 -0.0125 0 -0.0353859 -1.49222e-18 0 4.01064e-12 0 3.48697e-28
469 4 0.001 -0.00750001 0 -0.0360235 -1.49222e-18 0 -6.26782e-12 0 8.57253e-28
470 4 0.001 -0.00750001 0 -0.0353859 -1.49222e-18 0 4.01064e-12 0 3.48697e-28
619 5 0.001 -0.00250001 0 -0.0360235 -1.49222e-18 0 -6.26782e-12 0 8.57253e-28
620 5 0.001 -0.00250001 0 -0.0353859 -1.49222e-18 0 4.01064e-12 0 3.48697e-28
769 6 0.001 0.00250001 0 -0.0360235 1.49222e-18 0 -6.26782e-12 0 8.57253e-28
770 6 0.001 0.00250001 0 -0.0353859 1.49222e-18 0 4.01064e-12 0 3.48697e-28
919 7 0.001 0.00749999 0 -0.0360235 -1.49222e-18 0 -6.26782e-12 0 8.57253e-28
920 7 0.001 0.00749999 0 -0.0353859 -1.49222e-18 0 4.01064e-12 0 3.48697e-28
1069 8 0.001 0.0125 0 -0.0360235 1.49222e-18 0 -6.26782e-12 0 8.57253e-28
1070 8 0.001 0.0125 0 -0.0353859 1.49222e-18 0 4.01064e-12 0 3.48697e-28
1219 9 0.001 0.0175 0 -0.0360235 -1.49222e-18 0 -6.26782e-12 0 8.57253e-28
1220 9 0.001 0.0175 0 -0.0353859 -1.49222e-18 0 4.01064e-12 0 3.48697e-28
1369 10 0.001 0.0225 0 -0.0360235 -1.49222e-18 0 -6.26782e-12 0 8.57253e-28
1370 10 0.001 0.0225 0 -0.0353859 -1.49222e-18 0 4.01064e-12 0 3.48697e-28
21 1 0.001 -0.0225 0 -0.0347483 1.49222e-18 0 -3.80357e-12 0 3.08428e-28
22 1 0.001 -0.0225 0 -0.0341107 1.49222e-18 0 2.42528e-12 0 2.0578e-28
23 1 0.001 -0.0225 0 -0.0334732 1.49222e-18 0 -1.42162e-12 0 6.2945e-29
171 2 0.001 -0.0175 0 -0.0347483 1.49222e-18 0 -3.80357e-12 0 3.08428e-28
172 2 0.001 -0.0175 0 -0.0341107 1.49222e-18 0 2.42528e-12 0 2.0578e-28
173 2 0.001 -0.0175 0 -0.0334732 1.49222e-18 0 -1.42162e-12 0 6.2945e-29
321 3 0.001 -0.0125 0 -0.0347483 -1.49222e-18 0 -3.80357e-12 0 3.08428e-28
322 3 0.001 -0.0125 0 -0.0341107 -1.49222e-18 0 2.42528e-12 0 2.0578e-28
323 3 0.001 -0.0125 0 -0.0334732 -1.49222e-18 0 -1.42162e-12 0 6.2945e-29
471 4 0.001 -0.00750001 0 -0.0347483 -1.49222e-18 0 -3.80357e-12 0 3.08428e-28
472 4 0.001 -0.00750001 0 -0.0341107 -1.49222e-18 0 2.42528e-12 0 2.0578e-28
473 4 0.001 -0.00750001 0 -0.0334732 -1.49222e-18 0 -1.42162e-12 0 6.2945e-29
621 5 0.001 -0.00250001 0 -0.0347483 -1.49222e-18 0 -3.80357e-12 0 3.08428e-28
622 5 0.001 -0.00250001 0 -0.0341107 -1.49222e-18 0 2.42528e-12 0 2.0578e-28
623 5 0.001 -0.00250001 0 -0.0334732 -1.49222e-18 0 -1.42162e-12 0 6.2945e-29
771 6 0.001 0.00250001 0 -0.0347483 1.49222e-18 0 -3.80357e-12 0 3.08428e-28
772 6 0.001 0.00250001 0 -0.0341107 1.49222e-18 0 2.42528e-12 0 2.0578e-28
773 6 0.001 0.00250001 0 -0.0334732 1.49222e-18 0 -1.42162e-12 0 6.2945e-29
921 7 0.001 0.00749999 0 -0.0347483 -1.49222e-18 0 -3.80357e-12 0 3.08428e-28
922 7 0.001 0.00749999 0 -0.0341107 -1.49222e-18 0 2.42528e-12 0 2.0578e-28
923 7 0.001 0.00749999 0 -0.0334732 -1.49222e-18 0 -1.42162e-12 0 6.2945e-29
1071 8 0.001 0.0125 0 -0.0347483 1.49222e-18 0 -3.80357e-12 0 3.08428e-28
1072 8 0.001 0.0125 0 -0.0341107 1.49222e-18 0 2.42528e-12 0 2.0578e-28
1073 8 0.001 0.0125 0 -0.0334732 1.49222e-18 0 -1.42162e-12 0 6.2945e-29
1221 9 0.001 0.0175 0 -0.0347483 -1.49222e-18 0 -3.80357e-12 0 3.08428e-28
1222 9 0.001 0.0175 0 -0.0341107 -1.49222e-18 0 2.42528e-12 0 2.0578e-28
1223 9 0.001 0.0175 0 -0.0334732 -1.49222e-18 0 -1.42162e-12 0 6.2945e-29
1371 10 0.001 0.0225 0 -0.0347483 -1.49222e-18 0 -3.80357e-12 0 3.08428e-28
1372 10 0.001 0.0225 0 -0.0341107 -1.49222e-18 0 2.42528e-12 0 2.0578e-28
1373 10 0.001 0.0225 0 -0.0334732 -1.49222e-18 0 -1.42162e-12 0 6.2945e-29
24 1 0.001 -0.0225 0 -0.0328356 1.49222e-18 0 1.71351e-12 0 7.15245e-29
25 1 0.001 -0.0225 0 -0.032198 1.49222e-18 0 1.88103e-12 0 2.4551e-28
174 2 0.001 -0.0175 0 -0.0328356 1.49222e-18 0 1.71351e-12 0 7.15245e-29
175 2 0.001 -0.0175 0 -0.032198 1.49222e-18 0 1.88103e-12 0 2.4551e-28
324 3 0.001 -0.0125 0 -0.0328356 -1.49222e-18 0 1.71351e-12 0 7.15245e-29
325 3 0.001 -0.0125 0 -0.032198 -1.49222e-18 0 1.88103e-12 0 2.4551e-28
474 4 0.001 -0.00750001 0 -0.0328356 -1.49222e-18 0 1.71351e-12 0 7.15245e-29
475 4 0.001 -0.00750001 0 -0.032198 -1.49222e-18 0 1.88103e-12 0 2.4551e-28
624 5 0.001 -0.00250001 0 -0.0328356 -1.49222e-18 0 1.71351e-12 0 7.15245e-29
625 5 0.001 -0.00250001 0 -0.032198 -1.49222e-18 0 1.88103e-12 0 2.4551e-28
774 6 0.001 0.00250001 0 -0.0328356 1.49222e-18 0 1.71351e-12 0 7.15245e-29
775 6 0.001 0.00250001 0 -0.032198 1.49222e-18 0 1.88103e-12 0 2.4551e-28
924 7 0.001 0.00749999 0 -0.0328356 -1.49222e-18 0 1.71351e-12 0 7.15245e-29
925 7 0.001 0.00749999 0 -0.032198 -1.49222e-18 0 1.88103e-12 0 2.4551e-28
1074 8 0.001 0.0125 0 -0.0328356 1.49222e-18 0 1.71351e-12 0 7.15245e-29
1075 8 0.001 0.0125 0 -0.032198 1.49222e-18 0 1.88103e-12 0 2.4551e-28
1224 9 0.001 0.0175 0 -0.0328356 -1.49222e-18 0 1.71351e-12 0 7.15245e-29
1225 9 0.001 0.0175 0 -0.032198 -1.49222e-18 0 1.88103e-12 0 2.4551e-28
1374 10 0.001 0.0225 0 -0.0328356 -1.49222e-18 0 1.71351e-12 0 7.15245e-29
1375 10 0.001 0.0225 0 -0.032198 -1.49222e-18 0 1.88103e-12 0 2.4551e-28
26 1 0.001 -0.0225 0 -0.0315604 1.49222e-18 0 -6.10211e-12 0 8.09999e-28
27 1 0.001 -0.0225 0 -0.0309228 1.49222e-18 0 2.69534e-12 0 6.18529e-28
176 2 0.001 -0.0175 0 -0.0315604 1.49222e-18 0 -6.10211e-12 0 8.09999e-28
177 2 0.001 -0.0175 0 -0.0309228 1.49222e-18 0 2.69534e-12 0 6.18529e-28
326 3 0.001 -0.0125 0 -0.0315604 -1.49222e-18 0 -6.10211e-12 0 8.09999e-28
327 3 0.001 -0.0125 0 -0.0309228 -1.49222e-18 0 2.69534e-12 0 6.18529e-28
476 4 0.001 -0.00750001 0 -0.0315604 -1.49222e-18 0 -6.10211e-12 0 8.09999e-28
477 4 0.001 -0.00750001 0 -0.0309228 -1.49222e-18 0 2.69534e-12 0 6.18529e-28
626 5 0.001 -0.00250001 0 -0.0315604 -1.49222e-18 0 -6.10211e-12 0 8.09999e-28
627 5 0.001 -0.00250001 0 -0.0309228 -1.49222e-18 0 2.69534e-12 0 6.18529e-28
776 6 0.001 0.00250001 0 -0.0315604 1.49222e-18 0 -6.10211e-12 0 8.09999e-28
777 6 0.001 0.00250001 0 -0.0309228 1.49222e-18 0 2.69534e-12 0 6.18529e-28
926 7 0.001 0.00749999 0 -0.0315604 -1.49222e-18 0 -6.10211e-12 0 8.09999e-28
927 7 0.001 0.00749999 0 -0.0309228 -1.49222e-18 0 2.69534e-12 0 6.18529e-28
1076 8 0.001 0.0125 0 -0.0315604 1.49222e-18 0 -6.10211e-12 0 8.09999e-28
1077 8 0.001 0.0125 0 -0.0309228 1.49222e-18 0 2.69534e-12 0 6.18529e-28
1226 9 0.001 0.0175 0 -0.0315604 -1.49222e-18 0 -6.10211e-12 0 8.09999e-28
1227 9 0.001 0.0175 0 -0.0309228 -1.49222e-18 0 2.69534e-12 0 6.18529e-28
1376 10 0.001 0.0225 0 -0.0315604 -1.49222e-18 0 -6.10211e-12 0 8.09999e-28
1377 10 0.001 0.0225 0 -0.0309228 -1.49222e-18 0 2.69534e-12 0 6.18529e-28
28 1 0.001 -0.0225 0 -0.0302852 1.49222e-18 0 6.85565e-12 0 1.45353e-27
29 1 0.001 -0.0225 0 -0.0296477 1.49222e-18 0 -7.29305e-12 0 1.49889e-27
30 1 0.001 -0.0225 0 -0.0290101 1.49222e-18 0 -1.12927e-12 0 3.68142e-28
178 2 0.001 -0.0175 0 -0.0302852 1.49222e-18 0 6.85565e-12 0 1.45353e-27
179 2 0.001 -0.0175 0 -0.0296477 1.49222e-18 0 -7.29305e-12 0 1.49889e-27
180 2 0.001 -0.0175 0 -0.0290101 1.49222e-18 0 -1.12927e-12 0 3.68142e-28
328 3 0.001 -0.0125 0 -0.0302852 -1.49222e-18 0 6.85565e-12 0 1.45353e-27
329 3 0.001 -0.0125 0 -0.0296477 -1.49222e-18 0 -7.29305e-12 0 1.49889e-27
330 3 0.001 -0.0125 0 -0.0290101 -1.49222e-18 0 -1.12927e-12 0 3.68142e-28
478 4 0.001 -0.00750001 0 -0.0302852 -1.49222e-18 0 6.85565e-12 0 1.45353e-27
479 4 0.001 -0.00750001 0 -0.0296477 -1.49222e-18 0 -7.29305e-12 0 1.49889e-27
480 4 0.001 -0.00750001 0 -0.0290101 -1.49222e-18 0 -1.12927e-12 0 3.68142e-28
628 5 0.001 -0.00250001 0 -0.0302852 -1.49222e-18 0 6.85565e-12 0 1.45353e-27
629 5 0.001 -0.00250001 0 -0.0296477 -1.49222e-18 0 -7.29305e-12 0 1.49889e-27
630 5 0.001 -0.00250001 0 -0.0290101 -1.49222e-18 0 -1.12927e-12 0 3.68142e-28
778 6 0.001 0.00250001 0 -0.0302852 1.49222e-18 0 6.85565e-12 0 1.45353e-27
779 6 0.001 0.00250001 0 -0.0296477 1.49222e-18 0 -7.29305e-12 0 1.49889e-27
780 6 0.001 0.00250001 0 -0.0290101 1.49222e-18 0 -1.12927e-12 0 3.68142e-28
928 7 0.001 0.00749999 0 -0.0302852 -1.49222e-18 0 6.85565e-12 0 1.45353e-27
929 7 0.001 0.00749999 0 -0.0296477 -1.49222e-18 0 -7.29305e-12 0 1.49889e-27
930 7 0.001 0.00749999 0 -0.0290101 -1.49222e-18 0 -1.12927e-12 0 3.68142e-28
1078 8 0.001 0.0125 0 -0.0302852 1.49222e-18 0 6.85565e-12 0 1.45353e-27
1079 8 0.001 0.0125 0 -0.0296477 1.49222e-18 0 -7.29305e-12 0 1.49889e-27
1080 8 0.001 0.0125 0 -0.0290101 1.49222e-18 0 -1.12927e-12 0 3.68142e-28
1228 9 0.001 0.0175 0 -0.0302852 -1.49222e-18 0 6.85565e-12 0 1.45353e-27
1229 9 0.001 0.0175 0 -0.0296477 -1.49222e-18 0 -7.29305e-12 0 1.49889e-27
1230 9 0.001 0.0175 0 -0.0290101 -1.49222e-18 0 -1.12927e-12 0 3.68142e-28
1378 10 0.001 0.0225 0 -0.0302852 -1.49222e-18 0 6.85565e-12 0 1.45353e-27
1379 10 0.001 0.0225 0 -0.0296477 -1.49222e-18 0 -7.29305e-12 0 1.49889e-27
1380 10 0.001 0.0225 0 -0.0290101 -1.49222e-18 0 -1.12927e-12 0 3.68142e-28
31 1 0.001 -0.0225 0 -0.0283725 1.49222e-18 0 5.05707e-12 0 5.31054e-28
32 1 0.001 -0.0225 0 -0.0277349 1.49222e-18 0 -9.20387e-13 0 3.50954e-28
181 2 0.001 -0.0175 0 -0.0283725 1.49222e-18 0 5.05707e-12 0 5.31054e-28
182 2 0.001 -0.0175 0 -0.0277349 1.49222e-18 0 -9.20387e-13 0 3.50954e-28
331 3 0.001 -0.0125 0 -0.0283725 -1.49222e-18 0 5.05707e-12 0 5.31054e-28
332 3 0.001 -0.0125 0 -0.0277349 -1.49222e-18 0 -9.20387e-13 0 3.50954e-28
481 4 0.001 -0.00750001 0 -0.0283725 -1.49222e-18 0 5.05707e-12 0 5.31054e-28
482 4 0.001 -0.00750001 0 -0.0277349 -1.49222e-18 0 -9.20387e-13 0 3.50954e-28
631 5 0.001 -0.00250001 0 -0.0283725 -1.49222e-18 0 5.05707e-12 0 5.31054e-28
632 5 0.001 -0.00250001 0 -0.0277349 -1.49222e-18 0 -9.20387e-13 0 3.50954e-28
781 6 0.001 0.00250001 0 -0.0283725 1.49222e-18 0 5.05707e-12 0 5.31054e-28
782 6 0.001 0.00250001 0 -0.0277349 1.49222e-18 0 -9.20387e-13 0 3.50954e-28
931 7 0.001 0.00749999 0 -0.0283725 -1.49222e-18 0 5.05707e-12 0 5.31054e-28
932 7 0.001 0.00749999 0 -0.0277349 -1.49222e-18 0 -9.20387e-13 0 3.50954e-28
1081 8 0.001 0.0125 0 -0.0283725 1.49222e-18 0 5.05707e-12 0 5.31054e-28
1082 8 0.001 0.0125 0 -0.0277349 1.49222e-18 0 -9.20387e-13 0 3.50954e-28
1231 9 0.001 0.0175 0 -0.0283725 -1.49222e-18 0 5.05707e-12 0 5.31054e-28
1232 9 0.001 0.0175 0 -0.0277349 -1.49222e-18 0 -9.20387e-13 0 3.50954e-28
1381 10 0.001 0.0225 0 -0.0283725 -1.49222e-18 0 5.05707e-12 0 5.31054e-28
1382 10 0.001 0.0225 0 -0.0277349 -1.49222e-18 0 -9.20387e-13 0 3.50954e-28
33 1 0.001 -0.0225 0 -0.0270973 1.49222e-18 0 -5.01464e-12 0 5.98985e-28
34 1 0.001 -0.0225 0 -0.0264597 1.49222e-18 0 4.81026e-13 0 8.71094e-28
35 1 0.001 -0.0225 0 -0.0258221 1.49222e-18 0 6.68654e-12 0 9.3831e-28
183 2 0.001 -0.0175 0 -0.0270973 1.49222e-18 0 -5.01464e-12 0 5.98985e-28
184 2 0.001 -0.0175 0 -0.0264597 1.49222e-18 0 4.81026e-13 0 8.71094e-28
185 2 0.001 -0.0175 0 -0.0258221 1.49222e-18 0 6.68654e-12 0 9.3831e-28
333 3 0.001 -0.0125 0 -0.0270973 -1.49222e-18 0 -5.01464e-12 0 5.98985e-28
334 3 0.001 -0.0125 0 -0.0264597 -1.49222e-18 0 4.81026e-13 0 8.71094e-28
335 3 0.001 -0.0125 0 -0.0258221 -1.49222e-18 0 6.68654e-12 0 9.3831e-28
483 4 0.001 -0.00750001 0 -0.0270973 -1.49222e-18 0 -5.01464e-12 0 5.98985e-28
484 4 0.001 -0.00750001 0 -0.0264597 -1.49222e-18 0 4.81026e-13 0 8.71094e-28
485 4 0.001 -0.00750001 0 -0.0258221 -1.49222e-18 0 6.68654e-12 0 9.3831e-28
633 5 0.001 -0.00250001 0 -0.0270973 -1.49222e-18 0 -5.01464e-12 0 5.98985e-28
634 5 0.001 -0.00250001 0 -0.0264597 -1.49222e-18 0 4.81026e-13 0 8.71094e-28
635 5 0.001 -0.00250001 0 -0.0258221 -1.49222e-18 0 6.68654e-12 0 9.3831e-28
783 6 0.001 0.00250001 0 -0.0270973 1.49222e-18 0 -5.01464e-12 0 5.98985e-28
784 6 0.001 0.00250001 0 -0.0264597 1.49222e-18 0 4.81026e-13 0 8.71094e-28
785 6 0.001 0.00250001 0 -0.0258221 1.49222e-18 0 6.68654e-12 0 9.3831e-28
933 7 0.001 0.00749999 0 -0.0270973 -1.49222e-18 0 -5.01464e-12 0 5.98985e-28
934 7 0.001 0.00749999 0 -0.0264597 -1.49222e-18 0 4.81026e-13 0 8.71094e-28
935 7 0.001 0.00749999 0 -0.0258221 -1.49222e-18 0 6.68654e-12 0 9.3831e-28
1083 8 0.001 0.0125 0 -0.0270973 1.49222e-18 0 -5.01464e-12 0 5.98985e-28
1084 8 0.001 0.0125 0 -0.0264597 1.49222e-18 0 4.81026e-13 0 8.71094e-28
1085 8 0.001 0.0125 0 -0.0258221 1.49222e-18 0 6.68654e-12 0 9.3831e-28
1233 9 0.001 0.0175 0 -0.0270973 -1.49222e-18 0 -5.01464e-12 0 5.98985e-28
1234 9 0.001 0.0175 0 -0.0264597 -1.49222e-18 0 4.81026e-13 0 8.71094e-28
1235 9 0.001 0.0175 0 -0.0258221 -1.49222e-18 0 6.68654e-12 0 9.3831e-28
1383 10 0.001 0.0225 0 -0.0270973 -1.49222e-18 0 -5.01464e-12 0 5.98985e-28
1384 10 0.001 0.0225 0 -0.0264597 -1.49222e-18 0 4.81026e-13 0 8.71094e-28
1385 10 0.001 0.0225 0 -0.0258221 -1.49222e-18 0 6.68654e-12 0 9.3831e-28
36 1 0.001 -0.0225 0 -0.0251846 1.49222e-18 0 -3.80388e-12 0 5.67676e-28
37 1 0.001 -0.0225 0 -0.024547 1.49222e-18 0 1.47724e-13 0 5.3611e-31
186 2 0.001 -0.0175 0 -0.0251846 1.49222e-18 0 -3.80388e-12 0 5.67676e-28
187 2 0.001 -0.0175 0 -0.024547 1.49222e-18 0 1.47724e-13 0 5.3611e-31
336 3 0.001 -0.0125 0 -0.0251846 -1.49222e-18 0 -3.80388e-12 0 5.67676e-28
337 3 0.001 -0.0125 0 -0.024547 -1.49222e-18 0 1.47724e-13 0 5.3611e-31
486 4 0.001 -0.00750001 0 -0.0251846 -1.49222e-18 0 -3.80388e-12 0 5.67676e-28
487 4 0.001 -0.00750001 0 -0.024547 -1.49222e-18 0 1.47724e-13 0 5.3611e-31
636 5 0.001 -0.00250001 0 -0.0251846 -1.49222e-18 0 -3.80388e-12 0 5.67676e-28
637 5 0.001 -0.00250001 0 -0.024547 -1.49222e-18 0 1.47724e-13 0 5.3611e-31
786 6 0.001 0.00250001 0 -0.0251846 1.49222e-18 0 -3.80388e-12 0 5.67676e-28
787 6 0.001 0.00250001 0 -0.024547 1.49222e-18 0 1.47724e-13 0 5.3611e-31
936 7 0.001 0.00749999 0 -0.0251846 -1.49222e-18 0 -3.80388e-12 0 5.67676e-28
937 7 0.001 0.00749999 0 -0.024547 -1.49222e-18 0 1.47724e-13 0 5.3611e-31
1086 8 0.001 0.0125 0 -0.0251846 1.49222e-18 0 -3.80388e-12 0 5.67676e-28
1087 8 0.001 0.0125 0 -0.024547 1.49222e-18 0 1.47724e-13 0 5.3611e-31
1236 9 0.001 0.0175 0 -0.0251846 -1.49222e-18 0 -3.80388e-12 0 5.67676e-28
1237 9 0.001 0.0175 0 -0.024547 -1.49222e-18 0 1.47724e-13 0 5.3611e-31
1386 10 0.001 0.0225 0 -0.0251846 -1.49222e-18 0 -3.80388e-12 0 5.67676e-28
1387 10 0.001 0.0225 0 -0.024547 -1.49222e-18 0 1.47724e-13 0 5.3611e-31
38 1 0.001 -0.0225 0 -0.0239094 1.49222e-18 0 3.15474e-12 0 4.23811e-28
39 1 0.001 -0.0225 0 -0.0232718 1.49222e-18 0 -2.23596e-12 0 4.6194e-28
188 2 0.001 -0.0175 0 -0.0239094 1.49222e-18 0 3.15474e-12 0 4.23811e-28
189 2 0.001 -0.0175 0 -0.0232718 1.49222e-18 0 -2.23596e-12 0 4.6194e-28
338 3 0.001 -0.0125 0 -0.0239094 -1.49222e-18 0 3.15474e-12 0 4.23811e-28
339 3 0.001 -0.0125 0 -0.0232718 -1.49222e-18 0 -2.23596e-12 0 4.6194e-28
488 4 0.001 -0.00750001 0 -0.0239094 -1.49222e-18 0 3.15474e-12 0 4.23811e-28
489 4 0.001 -0.00750001 0 -0.0232718 -1.49222e-18 0 -2.23596e-12 0 4.6194e-28
638 5 0.001 -0.00250001 0 -0.0239094 -1.49222e-18 0 3.15474e-12 0 4.23811e-28
639 5 0.001 -0.00250001 0 -0.0232718 -1.49222e-18 0 -2.23596e-12 0 4.6194e-28
788 6 0.001 0.00250001 0 -0.0239094 1.49222e-18 0 3.15474e-12 0 4.23811e-28
789 6 0.001 0.00250001 0 -0.0232718 1.49222e-18 0 -2.23596e-12 0 4.6194e-28
938 7 0.001 0.00749999 0 -0.0239094 -1.49222e-18 0 3.15474e-12 0 4.23811e-28
939 7 0.001 0.00749999 0 -0.0232718 -1.49222e-18 0 -2.23596e-12 0 4.6194e-28
1088 8 0.001 0.0125 0 -0.0239094 1.49222e-18 0 3.15474e-12 0 4.23811e-28
1089 8 0.001 0.0125 0 -0.0232718 1.49222e-18 0 -2.23596e-12 0 4.6194e-28
1238 9 0.001 0.0175 0 -0.0239094 -1.49222e-18 0 3.15474e-12 0 4.23811e-28
1239 9 0.001 0.0175 0 -0.0232718 -1.49222e-18 0 -2.23596e-12 0 4.6194e-28
1388 10 0.001 0.0225 0 -0.0239094 -1.49222e-18 0 3.15474e-12 0 4.23811e-28
1389 10 0.001 0.0225 0 -0.0232718 -1.49222e-18 0 -2.23596e-12 0 4.6194e-28
40 1 0.001 -0.0225 0 -0.0226342 1.49222e-18 0 -3.23823e-12 0 2.53896e-28
41 1 0.001 -0.0225 0 -0.0219966 1.49222e-18 0 2.2361e-12 0 2.15781e-28
42 1 0.001 -0.0225 0 -0.0213591 1.49222e-18 0 -6.69665e-13 0 2.11465e-29
190 2 0.001 -0.0175 0 -0.0226342 1.49222e-18 0 -3.23823e-12 0 2.53896e-28
191 2 0.001 -0.0175 0 -0.0219966 1.49222e-18 0 2.2361e-12 0 2.15781e-28