ITEM: TIMESTEP
3500000
ITEM: NUMBER OF ATOMS
1500
ITEM: BOX BOUNDS ff ff ff
-2.5000000000000001e-02 2.5000000000000001e-02
-5.0000000000000001e-03 5.0000000000000001e-03
-5.0000000000000003e-02 5.0000000000000003e-02
ITEM: ATOMS id type radius x y z fx fy fz c_bendingE c_stretchingE
1 1 0.001 -0.0225 0 -0.0475 2.7719e-25 0 5.00038e-13 0 1.0358e-29
151 2 0.001 -0.0175 0 -0.0475 2.7719e-25 0 5.00038e-13 0 1.0358e-29
301 3 0.001 -0.0125 0 -0.0475 -2.7719e-25 0 5.00038e-13 0 1.0358e-29
451 4 0.001 -0.00750004 0 -0.0475 -2.7719e-25 0 5.00038e-13 0 1.0358e-29
601 5 0.001 -0.00250004 0 -0.0475 -2.7719e-25 0 5.00038e-13 0 1.0358e-29
751 6 0.001 0.00250004 0 -0.0475 2.7719e-25 0 5.00038e-13 0 1.0358e-29
901 7 0.001 0.00749996 0 -0.0475 -2.7719e-25 0 5.00038e-13 0 1.0358e-29
1051 8 0.001 0.0125 0 -0.0475 2.7719e-25 0 5.00038e-13 0 1.0358e-29
1201 9 0.001 0.0175 0 -0.0475 -2.7719e-25 0 5.00038e-13 0 1.0358e-29
1351 10 0.001 0.0225 0 -0.0475 -2.7719e-25 0 5.00038e-13 0 1.0358e-29
2 1 0.001 -0.0225 0 -0.0468624 2.7719e-25 0 -2.34003e-12 0 1.5101e-28
3 1 0.001 -0.0225 0 -0.0462248 2.7719e-25 0 3.88558e-12 0 3.14382e-28
4 1 0.001 -0.0225 0 -0.0455872 2.7719e-25 0 -2.92601e-12 0 2.05844e-28
152 2 0.001 -0.0175 0 -0.0468624 2.7719e-25 0 -2.34003e-12 0 1.5101e-28
153 2 0.001 -0.0175 0 -0.0462248 2.7719e-25 0 3.88558e-12 0 3.14382e-28
154 2 0.001 -0.0175 0 -0.0455872 2.7719e-25 0 -2.92601e-12 0 2.05844e-28
302 3 0.001 -0.0125 0 -0.0468624 -2.7719e-25 0 -2.34003e-12 0 1.5101e-28
303 3 0.001 -0.0125 0 -0.0462248 -2.7719e-25 0 3.88558e-12 0 3.14382e-28
304 3 0.001 -0.0125 0 -0.0455872 -2.7719e-25 0 -2.92601e-12 0 2.05844e-28
452 4 0.001 -0.00750004 0 -0.0468624 -2.7719e-25 0 -2.34003e-12 0 1.5101e-28
453 4 0.001 -0.00750004 0 -0.0462248 -2.7719e-25 0 3.88558e-12 0 3.14382e-28
454 4 0.001 -0.00750004 0 -0.0455872 -2.7719e-25 0 -2.92601e-12 0 2.05844e-28
602 5 0.001 -0.00250004 0 -0.0468624 -2.7719e-25 0 -2.34003e-12 0 1.5101e-28
603 5 0.001 -0.00250004 0 -0.0462248 -2.7719e-25 0 3.88558e-12 0 3.14382e-28
604 5 0.001 -0.00250004 0 -0.0455872 -2.7719e-25 0 -2.92601e-12 0 2.05844e-28
752 6 0.001 0.00250004 0 -0.0468624 2.7719e-25 0 -2.34003e-12 0 1.5101e-28
753 6 0.001 0.00250004 0 -0.0462248 2.7719e-25 0 3.88558e-12 0 3.14382e-28
754 6 0.001 0.00250004 0 -0.0455872 2.7719e-25 0 -2.92601e-12 0 2.05844e-28
902 7 0.001 0.00749996 0 -0.0468624 -2.7719e-25 0 -2.34003e-12 0 1.5101e-28
903 7 0.001 0.00749996 0 -0.0462248 -2.7719e-25 0 3.88558e-12 0 3.14382e-28
904 7 0.001 0.00749996 0 -0.0455872 -2.7719e-25 0 -2.92601e-12 0 2.05844e-28
1052 8 0.001 0.0125 0 -0.0468624 2.7719e-25 0 -2.34003e-12 0 1.5101e-28
1053 8 0.001 0.0125 0 -0.0462248 2.7719e-25 0 3.88558e-12 0 3.14382e-28
1054 8 0.001 0.0125 0 -0.0455872 2.7719e-25 0 -2.92601e-12 0 2.05844e-28
1202 9 0.001 0.0175 0 -0.0468624 -2.7719e-25 0 -2.34003e-12 0 1.5101e-28
1203 9 0.001 0.0175 0 -0.0462248 -2.7719e-25 0 3.88558e-12 0 3.14382e-28
1204 9 0.001 0.0175 0 -0.0455872 -2.7719e-25 0 -2.92601e-12 0 2.05844e-28
1352 10 0.001 0.0225 0 -0.0468624 -2.7719e-25 0 -2.34003e-12 0 1.5101e-28
1353 10 0.001 0.0225 0 -0.0462248 -2.7719e-25 0 3.88558e-12 0 3.14382e-28
1354 10 0.001 0.0225 0 -0.0455872 -2.7719e-25 0 -2.92601e-12 0 2.05844e-28
5 1 0.001 -0.0225 0 -0.0449497 2.7719e-25 0 1.1291e-12 0 3.46829e-29
6 1 0.001 -0.0225 0 -0.0443121 2.7719e-25 0 5.01783e-13 0 2.59358e-29
155 2 0.001 -0.0175 0 -0.0449497 2.7719e-25 0 1.1291e-12 0 3.46829e-29
156 2 0.001 -0.0175 0 -0.0443121 2.7719e-25 0 5.01783e-13 0 2.59358e-29
305 3 0.001 -0.0125 0 -0.0449497 -2.7719e-25 0 1.1291e-12 0 3.46829e-29
306 3 0.001 -0.0125 0 -0.0443121 -2.7719e-25 0 5.01783e-13 0 2.59358e-29
455 4 0.001 -0.00750004 0 -0.0449497 -2.7719e-25 0 1.1291e-12 0 3.46829e-29
456 4 0.001 -0.00750004 0 -0.0443121 -2.7719e-25 0 5.01783e-13 0 2.59358e-29
605 5 0.001 -0.00250004 0 -0.0449497 -2.7719e-25 0 1.1291e-12 0 3.46829e-29
606 5 0.001 -0.00250004 0 -0.0443121 -2.7719e-25 0 5.01783e-13 0 2.59358e-29
755 6 0.001 0.00250004 0 -0.0449497 2.7719e-25 0 1.1291e-12 0 3.46829e-29
756 6 0.001 0.00250004 0 -0.0443121 2.7719e-25 0 5.01783e-13 0 2.59358e-29
905 7 0.001 0.00749996 0 -0.0449497 -2.7719e-25 0 1.1291e-12 0 3.46829e-29
906 7 0.001 0.00749996 0 -0.0443121 -2.7719e-25 0 5.01783e-13 0 2.59358e-29
1055 8 0.001 0.0125 0 -0.0449497 2.7719e-25 0 1.1291e-12 0 3.46829e-29
1056 8 0.001 0.0125 0 -0.0443121 2.7719e-25 0 5.01783e-13 0 2.59358e-29
1205 9 0.001 0.0175 0 -0.0449497 -2.7719e-25 0 1.1291e-12 0 3.46829e-29
1206 9 0.001 0.0175 0 -0.0443121 -2.7719e-25 0 5.01783e-13 0 2.59358e-29
1355 10 0.001 0.0225 0 -0.0449497 -2.7719e-25 0 1.1291e-12 0 3.46829e-29
1356 10 0.001 0.0225 0 -0.0443121 -2.7719e-25 0 5.01783e-13 0 2.59358e-29
7 1 0.001 -0.0225 0 -0.0436745 2.7719e-25 0 -1.8812e-12 0 7.63998e-29
8 1 0.001 -0.0225 0 -0.0430369 2.7719e-25 0 2.17297e-12 0 9.81736e-29
157 2 0.001 -0.0175 0 -0.0436745 2.7719e-25 0 -1.8812e-12 0 7.63998e-29
158 2 0.001 -0.0175 0 -0.0430369 2.7719e-25 0 2.17297e-12 0 9.81736e-29
307 3 0.001 -0.0125 0 -0.0436745 -2.7719e-25 0 -1.8812e-12 0 7.63998e-29
308 3 0.001 -0.0125 0 -0.0430369 -2.7719e-25 0 2.17297e-12 0 9.81736e-29
457 4 0.001 -0.00750004 0 -0.0436745 -2.7719e-25 0 -1.8812e-12 0 7.63998e-29
458 4 0.001 -0.00750004 0 -0.0430369 -2.7719e-25 0 2.17297e-12 0 9.81736e-29
607 5 0.001 -0.00250004 0 -0.0436745 -2.7719e-25 0 -1.8812e-12 0 7.63998e-29
608 5 0.001 -0.00250004 0 -0.0430369 -2.7719e-25 0 2.17297e-12 0 9.81736e-29
757 6 0.001 0.00250004 0 -0.0436745 2.7719e-25 0 -1.8812e-12 0 7.63998e-29
758 6 0.001 0.00250004 0 -0.0430369 2.7719e-25 0 2.17297e-12 0 9.81736e-29
907 7 0.001 0.00749996 0 -0.0436745 -2.7719e-25 0 -1.8812e-12 0 7.63998e-29
908 7 0.001 0.00749996 0 -0.0430369 -2.7719e-25 0 2.17297e-12 0 9.81736e-29
1057 8 0.001 0.0125 0 -0.0436745 2.7719e-25 0 -1.8812e-12 0 7.63998e-29
1058 8 0.001 0.0125 0 -0.0430369 2.7719e-25 0 2.17297e-12 0 9.81736e-29
1207 9 0.001 0.0175 0 -0.0436745 -2.7719e-25 0 -1.8812e-12 0 7.63998e-29
1208 9 0.001 0.0175 0 -0.0430369 -2.7719e-25 0 2.17297e-12 0 9.81736e-29
1357 10 0.001 0.0225 0 -0.0436745 -2.7719e-25 0 -1.8812e-12 0 7.63998e-29
1358 10 0.001 0.0225 0 -0.0430369 -2.7719e-25 0 2.17297e-12 0 9.81736e-29
9 1 0.001 -0.0225 0 -0.0423993 2.7719e-25 0 -3.3845e-12 0 2.72869e-28
10 1 0.001 -0.0225 0 -0.0417617 2.7719e-25 0 5.22351e-12 0 5.72413e-28
11 1 0.001 -0.0225 0 -0.0411242 2.7719e-25 0 -2.42349e-12 0 3.53382e-28
159 2 0.001 -0.0175 0 -0.0423993 2.7719e-25 0 -3.3845e-12 0 2.72869e-28
160 2 0.001 -0.0175 0 -0.0417617 2.7719e-25 0 5.22351e-12 0 5.72413e-28
161 2 0.001 -0.0175 0 -0.0411242 2.7719e-25 0 -2.42349e-12 0 3.53382e-28
309 3 0.001 -0.0125 0 -0.0423993 -2.7719e-25 0 -3.3845e-12 0 2.72869e-28
310 3 0.001 -0.0125 0 -0.0417617 -2.7719e-25 0 5.22351e-12 0 5.72413e-28
311 3 0.001 -0.0125 0 -0.0411242 -2.7719e-25 0 -2.42349e-12 0 3.53382e-28
459 4 0.001 -0.00750004 0 -0.0423993 -2.7719e-25 0 -3.3845e-12 0 2.72869e-28
460 4 0.001 -0.00750004 0 -0.0417617 -2.7719e-25 0 5.22351e-12 0 5.72413e-28
461 4 0.001 -0.00750004 0 -0.0411242 -2.7719e-25 0 -2.42349e-12 0 3.53382e-28
609 5 0.001 -0.00250004 0 -0.0423993 -2.7719e-25 0 -3.3845e-12 0 2.72869e-28
610 5 0.001 -0.00250004 0 -0.0417617 -2.7719e-25 0 5.22351e-12 0 5.72413e-28
611 5 0.001 -0.00250004 0 -0.0411242 -2.7719e-25 0 -2.42349e-12 0 3.53382e-28
759 6 0.001 0.00250004 0 -0.0423993 2.7719e-25 0 -3.3845e-12 0 2.72869e-28
760 6 0.001 0.00250004 0 -0.0417617 2.7719e-25 0 5.22351e-12 0 5.72413e-28
761 6 0.001 0.00250004 0 -0.0411242 2.7719e-25 0 -2.42349e-12 0 3.53382e-28
909 7 0.001 0.00749996 0 -0.0423993 -2.7719e-25 0 -3.3845e-12 0 2.72869e-28
910 7 0.001 0.00749996 0 -0.0417617 -2.7719e-25 0 5.22351e-12 0 5.72413e-28
911 7 0.001 0.00749996 0 -0.0411242 -2.7719e-25 0 -2.42349e-12 0 3.53382e-28
1059 8 0.001 0.0125 0 -0.0423993 2.7719e-25 0 -3.3845e-12 0 2.72869e-28
1060 8 0.001 0.0125 0 -0.0417617 2.7719e-25 0 5.22351e-12 0 5.72413e-28
1061 8 0.001 0.0125 0 -0.0411242 2.7719e-25 0 -2.42349e-12 0 3.53382e-28
1209 9 0.001 0.0175 0 -0.0423993 -2.7719e-25 0 -3.3845e-12 0 2.72869e-28
1210 9 0.001 0.0175 0 -0.0417617 -2.7719e-25 0 5.22351e-12 0 5.72413e-28
1211 9 0.001 0.0175 0 -0.0411242 -2.7719e-25 0 -2.42349e-12 0 3.53382e-28
1359 10 0.001 0.0225 0 -0.0423993 -2.7719e-25 0 -3.3845e-12 0 2.72869e-28
1360 10 0.001 0.0225 0 -0.0417617 -2.7719e-25 0 5.22351e-12 0 5.72413e-28
1361 10 0.001 0.0225 0 -0.0411242 -2.7719e-25 0 -2.42349e-12 0 3.53382e-28
12 1 0.001 -0.0225 0 -0.0404866 2.7719e-25 0 -3.05086e-12 0 2.87794e-28
13 1 0.001 -0.0225 0 -0.039849 2.7719e-25 0 3.38571e-12 0 3.05138e-28
162 2 0.001 -0.0175 0 -0.0404866 2.7719e-25 0 -3.05086e-12 0 2.87794e-28
163 2 0.001 -0.0175 0 -0.039849 2.7719e-25 0 3.38571e-12 0 3.05138e-28
312 3 0.001 -0.0125 0 -0.0404866 -2.7719e-25 0 -3.05086e-12 0 2.87794e-28
313 3 0.001 -0.0125 0 -0.039849 -2.7719e-25 0 3.38571e-12 0 3.05138e-28
462 4 0.001 -0.00750004 0 -0.0404866 -2.7719e-25 0 -3.05086e-12 0 2.87794e-28
463 4 0.001 -0.00750004 0 -0.039849 -2.7719e-25 0 3.38571e-12 0 3.05138e-28
612 5 0.001 -0.00250004 0 -0.0404866 -2.7719e-25 0 -3.05086e-12 0 2.87794e-28
613 5 0.001 -0.00250004 0 -0.039849 -2.7719e-25 0 3.38571e-12 0 3.05138e-28
762 6 0.001 0.00250004 0 -0.0404866 2.7719e-25 0 -3.05086e-12 0 2.87794e-28
763 6 0.001 0.00250004 0 -0.039849 2.7719e-25 0 3.38571e-12 0 3.05138e-28
912 7 0.001 0.00749996 0 -0.0404866 -2.7719e-25 0 -3.05086e-12 0 2.87794e-28
913 7 0.001 0.00749996 0 -0.039849 -2.7719e-25 0 3.38571e-12 0 3.05138e-28
1062 8 0.001 0.0125 0 -0.0404866 2.7719e-25 0 -3.05086e-12 0 2.87794e-28
1063 8 0.001 0.0125 0 -0.039849 2.7719e-25 0 3.38571e-12 0 3.05138e-28
1212 9 0.001 0.0175 0 -0.0404866 -2.7719e-25 0 -3.05086e-12 0 2.87794e-28
1213 9 0.001 0.0175 0 -0.039849 -2.7719e-25 0 3.38571e-12 0 3.05138e-28
1362 10 0.001 0.0225 0 -0.0404866 -2.7719e-25 0 -3.05086e-12 0 2.87794e-28
1363 10 0.001 0.0225 0 -0.039849 -2.7719e-25 0 3.38571e-12 0 3.05138e-28
14 1 0.001 -0.0225 0 -0.0392114 2.7719e-25 0 3.00843e-12 0 6.25764e-28
15 1 0.001 -0.0225 0 -0.0385738 2.7719e-25 0 -4.34705e-12 0 6.12062e-28
16 1 0.001 -0.0225 0 -0.0379362 2.7719e-25 0 -2.67333e-12 0 4.42693e-28
164 2 0.001 -0.0175 0 -0.0392114 2.7719e-25 0 3.00843e-12 0 6.25764e-28
165 2 0.001 -0.0175 0 -0.0385738 2.7719e-25 0 -4.34705e-12 0 6.12062e-28
166 2 0.001 -0.0175 0 -0.0379362 2.7719e-25 0 -2.67333e-12 0 4.42693e-28
314 3 0.001 -0.0125 0 -0.0392114 -2.7719e-25 0 3.00843e-12 0 6.25764e-28
315 3 0.001 -0.0125 0 -0.0385738 -2.7719e-25 0 -4.34705e-12 0 6.12062e-28
316 3 0.001 -0.0125 0 -0.0379362 -2.7719e-25 0 -2.67333e-12 0 4.42693e-28
464 4 0.001 -0.00750004 0 -0.0392114 -2.7719e-25 0 3.00843e-12 0 6.25764e-28
465 4 0.001 -0.00750004 0 -0.0385738 -2.7719e-25 0 -4.34705e-12 0 6.12062e-28
466 4 0.001 -0.00750004 0 -0.0379362 -2.7719e-25 0 -2.67333e-12 0 4.42693e-28
614 5 0.001 -0.00250004 0 -0.0392114 -2.7719e-25 0 3.00843e-12 0 6.25764e-28
615 5 0.001 -0.00250004 0 -0.0385738 -2.7719e-25 0 -4.34705e-12 0 6.12062e-28
616 5 0.001 -0.00250004 0 -0.0379362 -2.7719e-25 0 -2.67333e-12 0 4.42693e-28
764 6 0.001 0.00250004 0 -0.0392114 2.7719e-25 0 3.00843e-12 0 6.25764e-28
765 6 0.001 0.00250004 0 -0.0385738 2.7719e-25 0 -4.34705e-12 0 6.12062e-28
766 6 0.001 0.00250004 0 -0.0379362 2.7719e-25 0 -2.67333e-12 0 4.42693e-28
914 7 0.001 0.00749996 0 -0.0392114 -2.7719e-25 0 3.00843e-12 0 6.25764e-28
915 7 0.001 0.00749996 0 -0.0385738 -2.7719e-25 0 -4.34705e-12 0 6.12062e-28
916 7 0.001 0.00749996 0 -0.0379362 -2.7719e-25 0 -2.67333e-12 0 4.42693e-28
1064 8 0.001 0.0125 0 -0.0392114 2.7719e-25 0 3.00843e-12 0 6.25764e-28
1065 8 0.001 0.0125 0 -0.0385738 2.7719e-25 0 -4.34705e-12 0 6.12062e-28
1066 8 0.001 0.0125 0 -0.0379362 2.7719e-25 0 -2.67333e-12 0 4.42693e-28
1214 9 0.001 0.0175 0 -0.0392114 -2.7719e-25 0 3.00843e-12 0 6.25764e-28
1215 9 0.001 0.0175 0 -0.0385738 -2.7719e-25 0 -4.34705e-12 0 6.12062e-28
1216 9 0.001 0.0175 0 -0.0379362 -2.7719e-25 0 -2.67333e-12 0 4.42693e-28
1364 10 0.001 0.0225 0 -0.0392114 -2.7719e-25 0 3.00843e-12 0 6.25764e-28
1365 10 0.001 0.0225 0 -0.0385738 -2.7719e-25 0 -4.34705e-12 0 6.12062e-28
1366 10 0.001 0.0225 0 -0.0379362 -2.7719e-25 0 -2.67333e-12 0 4.42693e-28
17 1 0.001 -0.0225 0 -0.0372987 2.7719e-25 0 1.96444e-12 0 4.95803e-28
18 1 0.001 -0.0225 0 -0.0366611 2.7719e-25 0 2.50604e-12 0 1.30493e-28
167 2 0.001 -0.0175 0 -0.0372987 2.7719e-25 0 1.96444e-12 0 4.95803e-28
168 2 0.001 -0.0175 0 -0.0366611 2.7719e-25 0 2.50604e-12 0 1.30493e-28
317 3 0.001 -0.0125 0 -0.0372987 -2.7719e-25 0 1.96444e-12 0 4.95803e-28
318 3 0.001 -0.0125 0 -0.0366611 -2.7719e-25 0 2.50604e-12 0 1.30493e-28
467 4 0.001 -0.00750004 0 -0.0372987 -2.7719e-25 0 1.96444e-12 0 4.95803e-28
468 4 0.001 -0.00750004 0 -0.0366611 -2.7719e-25 0 2.50604e-12 0 1.30493e-28
617 5 0.001 -0.00250004 0 -0.0372987 -2.7719e-25 0 1.96444e-12 0 4.95803e-28
618 5 0.001 -0.00250004 0 -0.0366611 -2.7719e-25 0 2.50604e-12 0 1.30493e-28
767 6 0.001 0.00250004 0 -0.0372987 2.7719e-25 0 1.96444e-12 0 4.95803e-28
768 6 0.001 0.00250004 0 -0.0366611 2.7719e-25 0 2.50604e-12 0 1.30493e-28
917 7 0.001 0.00749996 0 -0.0372987 -2.7719e-25 0 1.96444e-12 0 4.95803e-28
918 7 0.001 0.00749996 0 -0.0366611 -2.7719e-25 0 2.50604e-12 0 1.30493e-28
1067 8 0.001 0.0125 0 -0.0372987 2.7719e-25 0 1.96444e-12 0 4.95803e-28
1068 8 0.001 0.0125 0 -0.0366611 2.7719e-25 0 2.50604e-12 0 1.30493e-28
1217 9 0.001 0.0175 0 -0.0372987 -2.7719e-25 0 1.96444e-12 0 4.95803e-28
1218 9 0.001 0.0175 0 -0.0366611 -2.7719e-25 0 2.50604e-12 0 1.30493e-28
1367 10 0.001 0.0225 0 -0.0372987 -2.7719e-25 0 1.96444e-12 0 4.95803e-28
1368 10 0.001 0.0225 0 -0.0366611 -2.7719e-25 0 2.50604e-12 0 1.30493e-28
19 1 0.001 -0.0225 0 -0.0360235 2.7719e-25 0 -1.16863e-12 0 6.53193e-29
20 1 0.001 -0.0225 0 -0.0353859 2.7719e-25 0 1.12658e-12 0 6.10488e-29
169 2 0.001 -0.0175 0 -0.0360235 2.7719e-25 0 -1.16863e-12 0 6.53193e-29
170 2 0.001 -0.0175 0 -0.0353859 2.7719e-25 0 1.12658e-12 0 6.10488e-29
319 3 0.001 -0.0125 0 -0.0360235 -2.7719e-25 0 -1.16863e-12 0 6.53193e-29
320 3 0.001 -0.0125 0 -0.0353859 -2.7719e-25 0 1.12658e-12 0 6.10488e-29
469 4 0.001 -0.00750004 0 -0.0360235 -2.7719e-25 0 -1.16863e-12 0 6.53193e-29
470 4 0.001 -0.00750004 0 -0.0353859 -2.7719e-25 0 1.12658e-12 0 6.10488e-29
619 5 0.001 -0.00250004 0 -0.0360235 -2.7719e-25 0 -1.16863e-12 0 6.53193e-29
620 5 0.001 -0.00250004 0 -0.0353859 -2.7719e-25 0 1.12658e-12 0 6.10488e-29
769 6 0.001 0.00250004 0 -0.0360235 2.7719e-25 0 -1.16863e-12 0 6.53193e-29
770 6 0.001 0.00250004 0 -0.0353859 2.7719e-25 0 1.12658e-12 0 6.10488e-29
919 7 0.001 0.00749996 0 -0.0360235 -2.7719e-25 0 -1.16863e-12 0 6.53193e-29
920 7 0.001 0.00749996 0 -0.0353859 -2.7719e-25 0 1.12658e-12 0 6.10488e-29
1069 8 0.001 0.0125 0 -0.0360235 2.7719e-25 0 -1.16863e-12 0 6.53193e-29
1070 8 0.001 0.0125 0 -0.0353859 2.7719e-25 0 1.12658e-12 0 6.10488e-29
1219 9 0.001 0.0175 0 -0.0360235 -2.7719e-25 0 -1.16863e-12 0 6.53193e-29
1220 9 0.001 0.0175 0 -0.0353859 -2.7719e-25 0 1.12658e-12 0 6.10488e-29
1369 10 0.001 0.0225 0 -0.0360235 -2.7719e-25 0 -1.16863e-12 0 6.53193e-29
1370 10 0.001 0.0225 0 -0.0353859 -2.7719e-25 0 1.12658e-12 0 6.10488e-29
21 1 0.001 -0.0225 0 -0.0347483 2.7719e-25 0 -6.2507e-13 0 7.48865e-29
22 1 0.001 -0.0225 0 -0.0341107 2.7719e-25 0 -2.00598e-12 0 9.81509e-29
23 1 0.001 -0.0225 0 -0.0334732 2.7719e-25 0 1.92233e-12 0 9.43947e-29
171 2 0.001 -0.0175 0 -0.0347483 2.7719e-25 0 -6.2507e-13 0 7.48865e-29
172 2 0.001 -0.0175 0 -0.0341107 2.7719e-25 0 -2.00598e-12 0 9.81509e-29
173 2 0.001 -0.0175 0 -0.0334732 2.7719e-25 0 1.92233e-12 0 9.43947e-29
321 3 0.001 -0.0125 0 -0.0347483 -2.7719e-25 0 -6.2507e-13 0 7.48865e-29
322 3 0.001 -0.0125 0 -0.0341107 -2.7719e-25 0 -2.00598e-12 0 9.81509e-29
323 3 0.001 -0.0125 0 -0.0334732 -2.7719e-25 0 1.92233e-12 0 9.43947e-29
471 4 0.001 -0.00750004 0 -0.0347483 -2.7719e-25 0 -6.2507e-13 0 7.48865e-29
472 4 0.001 -0.00750004 0 -0.0341107 -2.7719e-25 0 -2.00598e-12 0 9.81509e-29
473 4 0.001 -0.00750004 0 -0.0334732 -2.7719e-25 0 1.92233e-12 0 9.43947e-29
621 5 0.001 -0.00250004 0 -0.0347483 -2.7719e-25 0 -6.2507e-13 0 7.48865e-29
622 5 0.001 -0.00250004 0 -0.0341107 -2.7719e-25 0 -2.00598e-12 0 9.81509e-29
623 5 0.001 -0.00250004 0 -0.0334732 -2.7719e-25 0 1.92233e-12 0 9.43947e-29
771 6 0.001 0.00250004 0 -0.0347483 2.7719e-25 0 -6.2507e-13 0 7.48865e-29
772 6 0.001 0.00250004 0 -0.0341107 2.7719e-25 0 -2.00598e-12 0 9.81509e-29
773 6 0.001 0.00250004 0 -0.0334732 2.7719e-25 0 1.92233e-12 0 9.43947e-29
921 7 0.001 0.00749996 0 -0.0347483 -2.7719e-25 0 -6.2507e-13 0 7.48865e-29
922 7 0.001 0.00749996 0 -0.0341107 -2.7719e-25 0 -2.00598e-12 0 9.81509e-29
923 7 0.001 0.00749996 0 -0.0334732 -2.7719e-25 0 1.92233e-12 0 9.43947e-29
1071 8 0.001 0.0125 0 -0.0347483 2.7719e-25 0 -6.2507e-13 0 7.48865e-29
1072 8 0.001 0.0125 0 -0.0341107 2.7719e-25 0 -2.00598e-12 0 9.81509e-29
1073 8 0.001 0.0125 0 -0.0334732 2.7719e-25 0 1.92233e-12 0 9.43947e-29
1221 9 0.001 0.0175 0 -0.0347483 -2.7719e-25 0 -6.2507e-13 0 7.48865e-29
1222 9 0.001 0.0175 0 -0.0341107 -2.7719e-25 0 -2.00598e-12 0 9.81509e-29
1223 9 0.001 0.0175 0 -0.0334732 -2.7719e-25 0 1.92233e-12 0 9.43947e-29
1371 10 0.001 0.0225 0 -0.0347483 -2.7719e-25 0 -6.2507e-13 0 7.48865e-29
1372 10 0.001 0.0225 0 -0.0341107 -2.7719e-25 0 -2.00598e-12 0 9.81509e-29
1373 10 0.001 0.0225 0 -0.0334732 -2.7719e-25 0 1.92233e-12 0 9.43947e-29
24 1 0.001 -0.0225 0 -0.0328356 2.7719e-25 0 -2.80043e-12 0 2.30033e-28
25 1 0.001 -0.0225 0 -0.032198 2.7719e-25 0 4.76427e-12 0 4.71632e-28
174 2 0.001 -0.0175 0 -0.0328356 2.7719e-25 0 -2.80043e-12 0 2.30033e-28
175 2 0.001 -0.0175 0 -0.032198 2.7719e-25 0 4.76427e-12 0 4.71632e-28
324 3 0.001 -0.0125 0 -0.0328356 -2.7719e-25 0 -2.80043e-12 0 2.30033e-28
325 3 0.001 -0.0125 0 -0.032198 -2.7719e-25 0 4.76427e-12 0 4.71632e-28
474 4 0.001 -0.00750004 0 -0.0328356 -2.7719e-25 0 -2.80043e-12 0 2.30033e-28
475 4 0.001 -0.00750004 0 -0.032198 -2.7719e-25 0 4.76427e-12 0 4.71632e-28
624 5 0.001 -0.00250004 0 -0.0328356 -2.7719e-25 0 -2.80043e-12 0 2.30033e-28
625 5 0.001 -0.00250004 0 -0.032198 -2.7719e-25 0 4.76427e-12 0 4.71632e-28
774 6 0.001 0.00250004 0 -0.0328356 2.7719e-25 0 -2.80043e-12 0 2.30033e-28
775 6 0.001 0.00250004 0 -0.032198 2.7719e-25 0 4.76427e-12 0 4.71632e-28
924 7 0.001 0.00749996 0 -0.0328356 -2.7719e-25 0 -2.80043e-12 0 2.30033e-28
925 7 0.001 0.00749996 0 -0.032198 -2.7719e-25 0 4.76427e-12 0 4.71632e-28
1074 8 0.001 0.0125 0 -0.0328356 2.7719e-25 0 -2.80043e-12 0 2.30033e-28
1075 8 0.001 0.0125 0 -0.032198 2.7719e-25 0 4.76427e-12 0 4.71632e-28
1224 9 0.001 0.0175 0 -0.0328356 -2.7719e-25 0 -2.80043e-12 0 2.30033e-28
1225 9 0.001 0.0175 0 -0.032198 -2.7719e-25 0 4.76427e-12 0 4.71632e-28
1374 10 0.001 0.0225 0 -0.0328356 -2.7719e-25 0 -2.80043e-12 0 2.30033e-28
1375 10 0.001 0.0225 0 -0.032198 -2.7719e-25 0 4.76427e-12 0 4.71632e-28
26 1 0.001 -0.0225 0 -0.0315604 2.7719e-25 0 -2.23627e-12 0 2.54114e-28
27 1 0.001 -0.0225 0 -0.0309228 2.7719e-25 0 7.73062e-13 0 4.37506e-29
176 2 0.001 -0.0175 0 -0.0315604 2.7719e-25 0 -2.23627e-12 0 2.54114e-28
177 2 0.001 -0.0175 0 -0.0309228 2.7719e-25 0 7.73062e-13 0 4.37506e-29
326 3 0.001 -0.0125 0 -0.0315604 -2.7719e-25 0 -2.23627e-12 0 2.54114e-28
327 3 0.001 -0.0125 0 -0.0309228 -2.7719e-25 0 7.73062e-13 0 4.37506e-29
476 4 0.001 -0.00750004 0 -0.0315604 -2.7719e-25 0 -2.23627e-12 0 2.54114e-28
477 4 0.001 -0.00750004 0 -0.0309228 -2.7719e-25 0 7.73062e-13 0 4.37506e-29
626 5 0.001 -0.00250004 0 -0.0315604 -2.7719e-25 0 -2.23627e-12 0 2.54114e-28
627 5 0.001 -0.00250004 0 -0.0309228 -2.7719e-25 0 7.73062e-13 0 4.37506e-29
776 6 0.001 0.00250004 0 -0.0315604 2.7719e-25 0 -2.23627e-12 0 2.54114e-28
777 6 0.001 0.00250004 0 -0.0309228 2.7719e-25 0 7.73062e-13 0 4.37506e-29
926 7 0.001 0.00749996 0 -0.0315604 -2.7719e-25 0 -2.23627e-12 0 2.54114e-28
927 7 0.001 0.00749996 0 -0.0309228 -2.7719e-25 0 7.73062e-13 0 4.37506e-29
1076 8 0.001 0.0125 0 -0.0315604 2.7719e-25 0 -2.23627e-12 0 2.54114e-28
1077 8 0.001 0.0125 0 -0.0309228 2.7719e-25 0 7.73062e-13 0 4.37506e-29
1226 9 0.001 0.0175 0 -0.0315604 -2.7719e-25 0 -2.23627e-12 0 2.54114e-28
1227 9 0.001 0.0175 0 -0.0309228 -2.7719e-25 0 7.73062e-13 0 4.37506e-29
1376 10 0.001 0.0225 0 -0.0315604 -2.7719e-25 0 -2.23627e-12 0 2.54114e-28
1377 10 0.001 0.0225 0 -0.0309228 -2.7719e-25 0 7.73062e-13 0 4.37506e-29
28 1 0.001 -0.0225 0 -0.0302852 2.7719e-25 0 -1.4631e-12 0 5.04417e-29
29 1 0.001 -0.0225 0 -0.0296477 2.7719e-25 0 3.35115e-13 0 9.51996e-30
30 1 0.001 -0.0225 0 -0.0290101 2.7719e-25 0 5.63408e-13 0 8.5945e-30
178 2 0.001 -0.0175 0 -0.0302852 2.7719e-25 0 -1.4631e-12 0 5.04417e-29
179 2 0.001 -0.0175 0 -0.0296477 2.7719e-25 0 3.35115e-13 0 9.51996e-30
180 2 0.001 -0.0175 0 -0.0290101 2.7719e-25 0 5.63408e-13 0 8.5945e-30
328 3 0.001 -0.0125 0 -0.0302852 -2.7719e-25 0 -1.4631e-12 0 5.04417e-29
329 3 0.001 -0.0125 0 -0.0296477 -2.7719e-25 0 3.35115e-13 0 9.51996e-30
330 3 0.001 -0.0125 0 -0.0290101 -2.7719e-25 0 5.63408e-13 0 8.5945e-30
478 4 0.001 -0.00750004 0 -0.0302852 -2.7719e-25 0 -1.4631e-12 0 5.04417e-29
479 4 0.001 -0.00750004 0 -0.0296477 -2.7719e-25 0 3.35115e-13 0 9.51996e-30
480 4 0.001 -0.00750004 0 -0.0290101 -2.7719e-25 0 5.63408e-13 0 8.5945e-30
628 5 0.001 -0.00250004 0 -0.0302852 -2.7719e-25 0 -1.4631e-12 0 5.04417e-29
629 5 0.001 -0.00250004 0 -0.0296477 -2.7719e-25 0 3.35115e-13 0 9.51996e-30
630 5 0.001 -0.00250004 0 -0.0290101 -2.7719e-25 0 5.63408e-13 0 8.5945e-30
778 6 0.001 0.00250004 0 -0.0302852 2.7719e-25 0 -1.4631e-12 0 5.04417e-29
779 6 0.001 0.00250004 0 -0.0296477 2.7719e-25 0 3.35115e-13 0 9.51996e-30
780 6 0.001 0.00250004 0 -0.0290101 2.7719e-25 0 5.63408e-13 0 8.5945e-30
928 7 0.001 0.00749996 0 -0.0302852 -2.7719e-25 0 -1.4631e-12 0 5.04417e-29
929 7 0.001 0.00749996 0 -0.0296477 -2.7719e-25 0 3.35115e-13 0 9.51996e-30
930 7 0.001 0.00749996 0 -0.0290101 -2.7719e-25 0 5.63408e-13 0 8.5945e-30
1078 8 0.001 0.0125 0 -0.0302852 2.7719e-25 0 -1.4631e-12 0 5.04417e-29
1079 8 0.001 0.0125 0 -0.0296477 2.7719e-25 0 3.35115e-13 0 9.51996e-30
1080 8 0.001 0.0125 0 -0.0290101 2.7719e-25 0 5.63408e-13 0 8.5945e-30
1228 9 0.001 0.0175 0 -0.0302852 -2.7719e-25 0 -1.4631e-12 0 5.04417e-29
1229 9 0.001 0.0175 0 -0.0296477 -2.7719e-25 0 3.35115e-13 0 9.51996e-30
1230 9 0.001 0.0175 0 -0.0290101 -2.7719e-25 0 5.63408e-13 0 8.5945e-30
1378 10 0.001 0.0225 0 -0.0302852 -2.7719e-25 0 -1.4631e-12 0 5.04417e-29
1379 10 0.001 0.0225 0 -0.0296477 -2.7719e-25 0 3.35115e-13 0 9.51996e-30
1380 10 0.001 0.0225 0 -0.0290101 -2.7719e-25 0 5.63408e-13 0 8.5945e-30
31 1 0.001 -0.0225 0 -0.0283725 2.7719e-25 0 -1.69166e-12 0 7.3372e-29
32 1 0.001 -0.0225 0 -0.0277349 2.7719e-25 0 2.51004e-13 0 1.07372e-28
181 2 0.001 -0.0175 0 -0.0283725 2.7719e-25 0 -1.69166e-12 0 7.3372e-29
182 2 0.001 -0.0175 0 -0.0277349 2.7719e-25 0 2.51004e-13 0 1.07372e-28
331 3 0.001 -0.0125 0 -0.0283725 -2.7719e-25 0 -1.69166e-12 0 7.3372e-29
332 3 0.001 -0.0125 0 -0.0277349 -2.7719e-25 0 2.51004e-13 0 1.07372e-28
481 4 0.001 -0.00750004 0 -0.0283725 -2.7719e-25 0 -1.69166e-12 0 7.3372e-29
482 4 0.001 -0.00750004 0 -0.0277349 -2.7719e-25 0 2.51004e-13 0 1.07372e-28
631 5 0.001 -0.00250004 0 -0.0283725 -2.7719e-25 0 -1.69166e-12 0 7.3372e-29
632 5 0.001 -0.00250004 0 -0.0277349 -2.7719e-25 0 2.51004e-13 0 1.07372e-28
781 6 0.001 0.00250004 0 -0.0283725 2.7719e-25 0 -1.69166e-12 0 7.3372e-29
782 6 0.001 0.00250004 0 -0.0277349 2.7719e-25 0 2.51004e-13 0 1.07372e-28
931 7 0.001 0.00749996 0 -0.0283725 -2.7719e-25 0 -1.69166e-12 0 7.3372e-29
932 7 0.001 0.00749996 0 -0.0277349 -2.7719e-25 0 2.51004e-13 0 1.07372e-28
1081 8 0.001 0.0125 0 -0.0283725 2.7719e-25 0 -1.69166e-12 0 7.3372e-29
1082 8 0.001 0.0125 0 -0.0277349 2.7719e-25 0 2.51004e-13 0 1.07372e-28
1231 9 0.001 0.0175 0 -0.0283725 -2.7719e-25 0 -1.69166e-12 0 7.3372e-29
1232 9 0.001 0.0175 0 -0.0277349 -2.7719e-25 0 2.51004e-13 0 1.07372e-28
1381 10 0.001 0.0225 0 -0.0283725 -2.7719e-25 0 -1.69166e-12 0 7.3372e-29
1382 10 0.001 0.0225 0 -0.0277349 -2.7719e-25 0 2.51004e-13 0 1.07372e-28
33 1 0.001 -0.0225 0 -0.0270973 2.7719e-25 0 2.46569e-12 0 1.30491e-28
34 1 0.001 -0.0225 0 -0.0264597 2.7719e-25 0 -2.80081e-12 0 1.63024e-28
35 1 0.001 -0.0225 0 -0.0258221 2.7719e-25 0 2.02671e-12 0 9.40787e-29
183 2 0.001 -0.0175 0 -0.0270973 2.7719e-25 0 2.46569e-12 0 1.30491e-28
184 2 0.001 -0.0175 0 -0.0264597 2.7719e-25 0 -2.80081e-12 0 1.63024e-28
185 2 0.001 -0.0175 0 -0.0258221 2.7719e-25 0 2.02671e-12 0 9.40787e-29
333 3 0.001 -0.0125 0 -0.0270973 -2.7719e-25 0 2.46569e-12 0 1.30491e-28
334 3 0.001 -0.0125 0 -0.0264597 -2.7719e-25 0 -2.80081e-12 0 1.63024e-28
335 3 0.001 -0.0125 0 -0.0258221 -2.7719e-25 0 2.02671e-12 0 9.40787e-29
483 4 0.001 -0.00750004 0 -0.0270973 -2.7719e-25 0 2.46569e-12 0 1.30491e-28
484 4 0.001 -0.00750004 0 -0.0264597 -2.7719e-25 0 -2.80081e-12 0 1.63024e-28
485 4 0.001 -0.00750004 0 -0.0258221 -2.7719e-25 0 2.02671e-12 0 9.40787e-29
633 5 0.001 -0.00250004 0 -0.0270973 -2.7719e-25 0 2.46569e-12 0 1.30491e-28
634 5 0.001 -0.00250004 0 -0.0264597 -2.7719e-25 0 -2.80081e-12 0 1.63024e-28
635 5 0.001 -0.00250004 0 -0.0258221 -2.7719e-25 0 2.02671e-12 0 9.40787e-29
783 6 0.001 0.00250004 0 -0.0270973 2.7719e-25 0 2.46569e-12 0 1.30491e-28
784 6 0.001 0.00250004 0 -0.0264597 2.7719e-25 0 -2.80081e-12 0 1.63024e-28
785 6 0.001 0.00250004 0 -0.0258221 2.7719e-25 0 2.02671e-12 0 9.40787e-29
933 7 0.001 0.00749996 0 -0.0270973 -2.7719e-25 0 2.46569e-12 0 1.30491e-28
934 7 0.001 0.00749996 0 -0.0264597 -2.7719e-25 0 -2.80081e-12 0 1.63024e-28
935 7 0.001 0.00749996 0 -0.0258221 -2.7719e-25 0 2.02671e-12 0 9.40787e-29
1083 8 0.001 0.0125 0 -0.0270973 2.7719e-25 0 2.46569e-12 0 1.30491e-28
1084 8 0.001 0.0125 0 -0.0264597 2.7719e-25 0 -2.80081e-12 0 1.63024e-28
1085 8 0.001 0.0125 0 -0.0258221 2.7719e-25 0 2.02671e-12 0 9.40787e-29
1233 9 0.001 0.0175 0 -0.0270973 -2.7719e-25 0 2.46569e-12 0 1.30491e-28
1234 9 0.001 0.0175 0 -0.0264597 -2.7719e-25 0 -2.80081e-12 0 1.63024e-28
1235 9 0.001 0.0175 0 -0.0258221 -2.7719e-25 0 2.02671e-12 0 9.40787e-29
1383 10 0.001 0.0225 0 -0.0270973 -2.7719e-25 0 2.46569e-12 0 1.30491e-28
1384 10 0.001 0.0225 0 -0.0264597 -2.7719e-25 0 -2.80081e-12 0 1.63024e-28
1385 10 0.001 0.0225 0 -0.0258221 -2.7719e-25 0 2.02671e-12 0 9.40787e-29
36 1 0.001 -0.0225 0 -0.0251846 2.7719e-25 0 8.56593e-13 0 1.18621e-28
37 1 0.001 -0.0225 0 -0.024547 2.7719e-25 0 -3.42661e-12 0 2.46106e-28
186 2 0.001 -0.0175 0 -0.0251846 2.7719e-25 0 8.56593e-13 0 1.18621e-28
187 2 0.001 -0.0175 0 -0.024547 2.7719e-25 0 -3.42661e-12 0 2.46106e-28
336 3 0.001 -0.0125 0 -0.0251846 -2.7719e-25 0 8.56593e-13 0 1.18621e-28
337 3 0.001 -0.0125 0 -0.024547 -2.7719e-25 0 -3.42661e-12 0 2.46106e-28
486 4 0.001 -0.00750004 0 -0.0251846 -2.7719e-25 0 8.56593e-13 0 1.18621e-28
487 4 0.001 -0.00750004 0 -0.024547 -2.7719e-25 0 -3.42661e-12 0 2.46106e-28
636 5 0.001 -0.00250004 0 -0.0251846 -2.7719e-25 0 8.56593e-13 0 1.18621e-28
637 5 0.001 -0.00250004 0 -0.024547 -2.7719e-25 0 -3.42661e-12 0 2.46106e-28
786 6 0.001 0.00250004 0 -0.0251846 2.7719e-25 0 8.56593e-13 0 1.18621e-28
787 6 0.001 0.00250004 0 -0.024547 2.7719e-25 0 -3.42661e-12 0 2.46106e-28
936 7 0.001 0.00749996 0 -0.0251846 -2.7719e-25 0 8.56593e-13 0 1.18621e-28
937 7 0.001 0.00749996 0 -0.024547 -2.7719e-25 0 -3.42661e-12 0 2.46106e-28
1086 8 0.001 0.0125 0 -0.0251846 2.7719e-25 0 8.56593e-13 0 1.18621e-28
1087 8 0.001 0.0125 0 -0.024547 2.7719e-25 0 -3.42661e-12 0 2.46106e-28
1236 9 0.001 0.0175 0 -0.0251846 -2.7719e-25 0 8.56593e-13 0 1.18621e-28
1237 9 0.001 0.0175 0 -0.024547 -2.7719e-25 0 -3.42661e-12 0 2.46106e-28
1386 10 0.001 0.0225 0 -0.0251846 -2.7719e-25 0 8.56593e-13 0 1.18621e-28
1387 10 0.001 0.0225 0 -0.024547 -2.7719e-25 0 -3.42661e-12 0 2.46106e-28
38 1 0.001 -0.0225 0 -0.0239094 2.7719e-25 0 2.21379e-12 0 1.51696e-28
39 1 0.001 -0.0225 0 -0.0232718 2.7719e-25 0 5.863e-13 0 3.95243e-29
188 2 0.001 -0.0175 0 -0.0239094 2.7719e-25 0 2.21379e-12 0 1.51696e-28
189 2 0.001 -0.0175 0 -0.0232718 2.7719e-25 0 5.863e-13 0 3.95243e-29
338 3 0.001 -0.0125 0 -0.0239094 -2.7719e-25 0 2.21379e-12 0 1.51696e-28
339 3 0.001 -0.0125 0 -0.0232718 -2.7719e-25 0 5.863e-13 0 3.95243e-29
488 4 0.001 -0.00750004 0 -0.0239094 -2.7719e-25 0 2.21379e-12 0 1.51696e-28
489 4 0.001 -0.00750004 0 -0.0232718 -2.7719e-25 0 5.863e-13 0 3.95243e-29
638 5 0.001 -0.00250004 0 -0.0239094 -2.7719e-25 0 2.21379e-12 0 1.51696e-28
639 5 0.001 -0.00250004 0 -0.0232718 -2.7719e-25 0 5.863e-13 0 3.95243e-29
788 6 0.001 0.00250004 0 -0.0239094 2.7719e-25 0 2.21379e-12 0 1.51696e-28
789 6 0.001 0.00250004 0 -0.0232718 2.7719e-25 0 5.863e-13 0 3.95243e-29
938 7 0.001 0.00749996 0 -0.0239094 -2.7719e-25 0 2.21379e-12 0 1.51696e-28
939 7 0.001 0.00749996 0 -0.0232718 -2.7719e-25 0 5.863e-13 0 3.95243e-29
1088 8 0.001 0.0125 0 -0.0239094 2.7719e-25 0 2.21379e-12 0 1.51696e-28
1089 8 0.001 0.0125 0 -0.0232718 2.7719e-25 0 5.863e-13 0 3.95243e-29
1238 9 0.001 0.0175 0 -0.0239094 -2.7719e-25 0 2.21379e-12 0 1.51696e-28
1239 9 0.001 0.0175 0 -0.0232718 -2.7719e-25 0 5.863e-13 0 3.95243e-29
1388 10 0.001 0.0225 0 -0.0239094 -2.7719e-25 0 2.21379e-12 0 1.51696e-28
1389 10 0.001 0.0225 0 -0.0232718 -2.7719e-25 0 5.863e-13 0 3.95243e-29
40 1 0.001 -0.0225 0 -0.0226342 2.7719e-25 0 -4.15787e-12 0 4.70895e-28
41 1 0.001 -0.0225 0 -0.0219966 2.7719e-25 0 5.2868e-12 0 6.09687e-28
42 1 0.001 -0.0225 0 -0.0213591 2.7719e-25 0 -1.7154e-12 0 1.78316e-28
190 2 0.001 -0.0175 0 -0.0226342 2.7719e-25 0 -4.15787e-12 0 4.70895e-28
191 2 0.001 -0.0175 0 -0.0219966 2.7719e-25 0 5.2868e-12 0 6.09687e-28
192 2 0.001 -0.0175 0 -0.0213591 2.7719e-25 0 -1.7154e-12 0 1.78316e-28
340 3 0.001 -0.0125 0 -0.0226342 -2.7719e-25 0 -4.15787e-12 0 4.70895e-28
341 3 0.001 -0.0125 0 -0.0219966 -2.7719e-25 0 5.2868e-12 0 6.09687e-28
342 3 0.001 -0.0125 0 -0.0213591 -2.7719e-25 0 -1.7154e-12 0 1.78316e-28
490 4 0.001 -0.00750004 0 -0.0226342 -2.7719e-25 0 -4.15787e-12 0 4.70895e-28
491 4 0.001 -0.00750004 0 -0.0219966 -2.7719e-25 0 5.2868e-12 0 6.09687e-28