ITEM: TIMESTEP
8300000
ITEM: NUMBER OF ATOMS
1500
ITEM: BOX BOUNDS ff ff ff
-2.5000000000000001e-02 2.5000000000000001e-02
-5.0000000000000001e-03 5.0000000000000001e-03
-5.0000000000000003e-02 5.0000000000000003e-02
ITEM: ATOMS id type radius x y z fx fy fz c_bendingE c_stretchingE
1 1 0.001 -0.0224999 0 -0.0475 2.7719e-25 0 9.59207e-13 0 3.81943e-29
151 2 0.001 -0.0174999 0 -0.0475 2.7719e-25 0 9.59207e-13 0 3.81943e-29
301 3 0.001 -0.0125001 0 -0.0475 -2.7719e-25 0 9.59207e-13 0 3.81943e-29
451 4 0.001 -0.00750009 0 -0.0475 -2.7719e-25 0 9.59207e-13 0 3.81943e-29
601 5 0.001 -0.00250009 0 -0.0475 -2.7719e-25 0 9.59207e-13 0 3.81943e-29
751 6 0.001 0.00250009 0 -0.0475 2.7719e-25 0 9.59207e-13 0 3.81943e-29
901 7 0.001 0.00749991 0 -0.0475 -2.7719e-25 0 9.59207e-13 0 3.81943e-29
1051 8 0.001 0.0125001 0 -0.0475 2.7719e-25 0 9.59207e-13 0 3.81943e-29
1201 9 0.001 0.0174999 0 -0.0475 -2.7719e-25 0 9.59207e-13 0 3.81943e-29
1351 10 0.001 0.0224999 0 -0.0475 -2.7719e-25 0 9.59207e-13 0 3.81943e-29
2 1 0.001 -0.0224999 0 -0.0468624 2.7719e-25 0 -2.08985e-12 0 9.12275e-29
3 1 0.001 -0.0224999 0 -0.0462248 2.7719e-25 0 3.30203e-12 0 2.48709e-28
4 1 0.001 -0.0224999 0 -0.0455872 2.7719e-25 0 -1.04449e-12 0 2.48342e-28
152 2 0.001 -0.0174999 0 -0.0468624 2.7719e-25 0 -2.08985e-12 0 9.12275e-29
153 2 0.001 -0.0174999 0 -0.0462248 2.7719e-25 0 3.30203e-12 0 2.48709e-28
154 2 0.001 -0.0174999 0 -0.0455872 2.7719e-25 0 -1.04449e-12 0 2.48342e-28
302 3 0.001 -0.0125001 0 -0.0468624 -2.7719e-25 0 -2.08985e-12 0 9.12275e-29
303 3 0.001 -0.0125001 0 -0.0462248 -2.7719e-25 0 3.30203e-12 0 2.48709e-28
304 3 0.001 -0.0125001 0 -0.0455872 -2.7719e-25 0 -1.04449e-12 0 2.48342e-28
452 4 0.001 -0.00750009 0 -0.0468624 -2.7719e-25 0 -2.08985e-12 0 9.12275e-29
453 4 0.001 -0.00750009 0 -0.0462248 -2.7719e-25 0 3.30203e-12 0 2.48709e-28
454 4 0.001 -0.00750009 0 -0.0455872 -2.7719e-25 0 -1.04449e-12 0 2.48342e-28
602 5 0.001 -0.00250009 0 -0.0468624 -2.7719e-25 0 -2.08985e-12 0 9.12275e-29
603 5 0.001 -0.00250009 0 -0.0462248 -2.7719e-25 0 3.30203e-12 0 2.48709e-28
604 5 0.001 -0.00250009 0 -0.0455872 -2.7719e-25 0 -1.04449e-12 0 2.48342e-28
752 6 0.001 0.00250009 0 -0.0468624 2.7719e-25 0 -2.08985e-12 0 9.12275e-29
753 6 0.001 0.00250009 0 -0.0462248 2.7719e-25 0 3.30203e-12 0 2.48709e-28
754 6 0.001 0.00250009 0 -0.0455872 2.7719e-25 0 -1.04449e-12 0 2.48342e-28
902 7 0.001 0.00749991 0 -0.0468624 -2.7719e-25 0 -2.08985e-12 0 9.12275e-29
903 7 0.001 0.00749991 0 -0.0462248 -2.7719e-25 0 3.30203e-12 0 2.48709e-28
904 7 0.001 0.00749991 0 -0.0455872 -2.7719e-25 0 -1.04449e-12 0 2.48342e-28
1052 8 0.001 0.0125001 0 -0.0468624 2.7719e-25 0 -2.08985e-12 0 9.12275e-29
1053 8 0.001 0.0125001 0 -0.0462248 2.7719e-25 0 3.30203e-12 0 2.48709e-28
1054 8 0.001 0.0125001 0 -0.0455872 2.7719e-25 0 -1.04449e-12 0 2.48342e-28
1202 9 0.001 0.0174999 0 -0.0468624 -2.7719e-25 0 -2.08985e-12 0 9.12275e-29
1203 9 0.001 0.0174999 0 -0.0462248 -2.7719e-25 0 3.30203e-12 0 2.48709e-28
1204 9 0.001 0.0174999 0 -0.0455872 -2.7719e-25 0 -1.04449e-12 0 2.48342e-28
1352 10 0.001 0.0224999 0 -0.0468624 -2.7719e-25 0 -2.08985e-12 0 9.12275e-29
1353 10 0.001 0.0224999 0 -0.0462248 -2.7719e-25 0 3.30203e-12 0 2.48709e-28
1354 10 0.001 0.0224999 0 -0.0455872 -2.7719e-25 0 -1.04449e-12 0 2.48342e-28
5 1 0.001 -0.0224999 0 -0.0449497 2.7719e-25 0 -8.73475e-12 0 2.45526e-27
6 1 0.001 -0.0224999 0 -0.0443121 2.7719e-25 0 1.26217e-11 0 3.44572e-27
155 2 0.001 -0.0174999 0 -0.0449497 2.7719e-25 0 -8.73475e-12 0 2.45526e-27
156 2 0.001 -0.0174999 0 -0.0443121 2.7719e-25 0 1.26217e-11 0 3.44572e-27
305 3 0.001 -0.0125001 0 -0.0449497 -2.7719e-25 0 -8.73475e-12 0 2.45526e-27
306 3 0.001 -0.0125001 0 -0.0443121 -2.7719e-25 0 1.26217e-11 0 3.44572e-27
455 4 0.001 -0.00750009 0 -0.0449497 -2.7719e-25 0 -8.73475e-12 0 2.45526e-27
456 4 0.001 -0.00750009 0 -0.0443121 -2.7719e-25 0 1.26217e-11 0 3.44572e-27
605 5 0.001 -0.00250009 0 -0.0449497 -2.7719e-25 0 -8.73475e-12 0 2.45526e-27
606 5 0.001 -0.00250009 0 -0.0443121 -2.7719e-25 0 1.26217e-11 0 3.44572e-27
755 6 0.001 0.00250009 0 -0.0449497 2.7719e-25 0 -8.73475e-12 0 2.45526e-27
756 6 0.001 0.00250009 0 -0.0443121 2.7719e-25 0 1.26217e-11 0 3.44572e-27
905 7 0.001 0.00749991 0 -0.0449497 -2.7719e-25 0 -8.73475e-12 0 2.45526e-27
906 7 0.001 0.00749991 0 -0.0443121 -2.7719e-25 0 1.26217e-11 0 3.44572e-27
1055 8 0.001 0.0125001 0 -0.0449497 2.7719e-25 0 -8.73475e-12 0 2.45526e-27
1056 8 0.001 0.0125001 0 -0.0443121 2.7719e-25 0 1.26217e-11 0 3.44572e-27
1205 9 0.001 0.0174999 0 -0.0449497 -2.7719e-25 0 -8.73475e-12 0 2.45526e-27
1206 9 0.001 0.0174999 0 -0.0443121 -2.7719e-25 0 1.26217e-11 0 3.44572e-27
1355 10 0.001 0.0224999 0 -0.0449497 -2.7719e-25 0 -8.73475e-12 0 2.45526e-27
1356 10 0.001 0.0224999 0 -0.0443121 -2.7719e-25 0 1.26217e-11 0 3.44572e-27
7 1 0.001 -0.0224999 0 -0.0436745 2.7719e-25 0 -7.35607e-12 0 1.27086e-27
8 1 0.001 -0.0224999 0 -0.0430369 2.7719e-25 0 7.27247e-12 0 1.23636e-27
157 2 0.001 -0.0174999 0 -0.0436745 2.7719e-25 0 -7.35607e-12 0 1.27086e-27
158 2 0.001 -0.0174999 0 -0.0430369 2.7719e-25 0 7.27247e-12 0 1.23636e-27
307 3 0.001 -0.0125001 0 -0.0436745 -2.7719e-25 0 -7.35607e-12 0 1.27086e-27
308 3 0.001 -0.0125001 0 -0.0430369 -2.7719e-25 0 7.27247e-12 0 1.23636e-27
457 4 0.001 -0.00750009 0 -0.0436745 -2.7719e-25 0 -7.35607e-12 0 1.27086e-27
458 4 0.001 -0.00750009 0 -0.0430369 -2.7719e-25 0 7.27247e-12 0 1.23636e-27
607 5 0.001 -0.00250009 0 -0.0436745 -2.7719e-25 0 -7.35607e-12 0 1.27086e-27
608 5 0.001 -0.00250009 0 -0.0430369 -2.7719e-25 0 7.27247e-12 0 1.23636e-27
757 6 0.001 0.00250009 0 -0.0436745 2.7719e-25 0 -7.35607e-12 0 1.27086e-27
758 6 0.001 0.00250009 0 -0.0430369 2.7719e-25 0 7.27247e-12 0 1.23636e-27
907 7 0.001 0.00749991 0 -0.0436745 -2.7719e-25 0 -7.35607e-12 0 1.27086e-27
908 7 0.001 0.00749991 0 -0.0430369 -2.7719e-25 0 7.27247e-12 0 1.23636e-27
1057 8 0.001 0.0125001 0 -0.0436745 2.7719e-25 0 -7.35607e-12 0 1.27086e-27
1058 8 0.001 0.0125001 0 -0.0430369 2.7719e-25 0 7.27247e-12 0 1.23636e-27
1207 9 0.001 0.0174999 0 -0.0436745 -2.7719e-25 0 -7.35607e-12 0 1.27086e-27
1208 9 0.001 0.0174999 0 -0.0430369 -2.7719e-25 0 7.27247e-12 0 1.23636e-27
1357 10 0.001 0.0224999 0 -0.0436745 -2.7719e-25 0 -7.35607e-12 0 1.27086e-27
1358 10 0.001 0.0224999 0 -0.0430369 -2.7719e-25 0 7.27247e-12 0 1.23636e-27
9 1 0.001 -0.0224999 0 -0.0423993 2.7719e-25 0 -9.57113e-12 0 1.90261e-27
10 1 0.001 -0.0224999 0 -0.0417617 2.7719e-25 0 5.3076e-12 0 9.12429e-28
11 1 0.001 -0.0224999 0 -0.0411242 2.7719e-25 0 1.63022e-12 0 2.37377e-28
159 2 0.001 -0.0174999 0 -0.0423993 2.7719e-25 0 -9.57113e-12 0 1.90261e-27
160 2 0.001 -0.0174999 0 -0.0417617 2.7719e-25 0 5.3076e-12 0 9.12429e-28
161 2 0.001 -0.0174999 0 -0.0411242 2.7719e-25 0 1.63022e-12 0 2.37377e-28
309 3 0.001 -0.0125001 0 -0.0423993 -2.7719e-25 0 -9.57113e-12 0 1.90261e-27
310 3 0.001 -0.0125001 0 -0.0417617 -2.7719e-25 0 5.3076e-12 0 9.12429e-28
311 3 0.001 -0.0125001 0 -0.0411242 -2.7719e-25 0 1.63022e-12 0 2.37377e-28
459 4 0.001 -0.00750009 0 -0.0423993 -2.7719e-25 0 -9.57113e-12 0 1.90261e-27
460 4 0.001 -0.00750009 0 -0.0417617 -2.7719e-25 0 5.3076e-12 0 9.12429e-28
461 4 0.001 -0.00750009 0 -0.0411242 -2.7719e-25 0 1.63022e-12 0 2.37377e-28
609 5 0.001 -0.00250009 0 -0.0423993 -2.7719e-25 0 -9.57113e-12 0 1.90261e-27
610 5 0.001 -0.00250009 0 -0.0417617 -2.7719e-25 0 5.3076e-12 0 9.12429e-28
611 5 0.001 -0.00250009 0 -0.0411242 -2.7719e-25 0 1.63022e-12 0 2.37377e-28
759 6 0.001 0.00250009 0 -0.0423993 2.7719e-25 0 -9.57113e-12 0 1.90261e-27
760 6 0.001 0.00250009 0 -0.0417617 2.7719e-25 0 5.3076e-12 0 9.12429e-28
761 6 0.001 0.00250009 0 -0.0411242 2.7719e-25 0 1.63022e-12 0 2.37377e-28
909 7 0.001 0.00749991 0 -0.0423993 -2.7719e-25 0 -9.57113e-12 0 1.90261e-27
910 7 0.001 0.00749991 0 -0.0417617 -2.7719e-25 0 5.3076e-12 0 9.12429e-28
911 7 0.001 0.00749991 0 -0.0411242 -2.7719e-25 0 1.63022e-12 0 2.37377e-28
1059 8 0.001 0.0125001 0 -0.0423993 2.7719e-25 0 -9.57113e-12 0 1.90261e-27
1060 8 0.001 0.0125001 0 -0.0417617 2.7719e-25 0 5.3076e-12 0 9.12429e-28
1061 8 0.001 0.0125001 0 -0.0411242 2.7719e-25 0 1.63022e-12 0 2.37377e-28
1209 9 0.001 0.0174999 0 -0.0423993 -2.7719e-25 0 -9.57113e-12 0 1.90261e-27
1210 9 0.001 0.0174999 0 -0.0417617 -2.7719e-25 0 5.3076e-12 0 9.12429e-28
1211 9 0.001 0.0174999 0 -0.0411242 -2.7719e-25 0 1.63022e-12 0 2.37377e-28
1359 10 0.001 0.0224999 0 -0.0423993 -2.7719e-25 0 -9.57113e-12 0 1.90261e-27
1360 10 0.001 0.0224999 0 -0.0417617 -2.7719e-25 0 5.3076e-12 0 9.12429e-28
1361 10 0.001 0.0224999 0 -0.0411242 -2.7719e-25 0 1.63022e-12 0 2.37377e-28
12 1 0.001 -0.0224999 0 -0.0404866 2.7719e-25 0 -2.2153e-12 0 2.19203e-28
13 1 0.001 -0.0224999 0 -0.039849 2.7719e-25 0 -4.22145e-12 0 7.11483e-28
162 2 0.001 -0.0174999 0 -0.0404866 2.7719e-25 0 -2.2153e-12 0 2.19203e-28
163 2 0.001 -0.0174999 0 -0.039849 2.7719e-25 0 -4.22145e-12 0 7.11483e-28
312 3 0.001 -0.0125001 0 -0.0404866 -2.7719e-25 0 -2.2153e-12 0 2.19203e-28
313 3 0.001 -0.0125001 0 -0.039849 -2.7719e-25 0 -4.22145e-12 0 7.11483e-28
462 4 0.001 -0.00750009 0 -0.0404866 -2.7719e-25 0 -2.2153e-12 0 2.19203e-28
463 4 0.001 -0.00750009 0 -0.039849 -2.7719e-25 0 -4.22145e-12 0 7.11483e-28
612 5 0.001 -0.00250009 0 -0.0404866 -2.7719e-25 0 -2.2153e-12 0 2.19203e-28
613 5 0.001 -0.00250009 0 -0.039849 -2.7719e-25 0 -4.22145e-12 0 7.11483e-28
762 6 0.001 0.00250009 0 -0.0404866 2.7719e-25 0 -2.2153e-12 0 2.19203e-28
763 6 0.001 0.00250009 0 -0.039849 2.7719e-25 0 -4.22145e-12 0 7.11483e-28
912 7 0.001 0.00749991 0 -0.0404866 -2.7719e-25 0 -2.2153e-12 0 2.19203e-28
913 7 0.001 0.00749991 0 -0.039849 -2.7719e-25 0 -4.22145e-12 0 7.11483e-28
1062 8 0.001 0.0125001 0 -0.0404866 2.7719e-25 0 -2.2153e-12 0 2.19203e-28
1063 8 0.001 0.0125001 0 -0.039849 2.7719e-25 0 -4.22145e-12 0 7.11483e-28
1212 9 0.001 0.0174999 0 -0.0404866 -2.7719e-25 0 -2.2153e-12 0 2.19203e-28
1213 9 0.001 0.0174999 0 -0.039849 -2.7719e-25 0 -4.22145e-12 0 7.11483e-28
1362 10 0.001 0.0224999 0 -0.0404866 -2.7719e-25 0 -2.2153e-12 0 2.19203e-28
1363 10 0.001 0.0224999 0 -0.039849 -2.7719e-25 0 -4.22145e-12 0 7.11483e-28
14 1 0.001 -0.0224999 0 -0.0392114 2.7719e-25 0 8.40071e-12 0 1.46476e-27
15 1 0.001 -0.0224999 0 -0.0385738 2.7719e-25 0 -6.3117e-12 0 9.27952e-28
16 1 0.001 -0.0224999 0 -0.0379362 2.7719e-25 0 2.59209e-12 0 1.8656e-28
164 2 0.001 -0.0174999 0 -0.0392114 2.7719e-25 0 8.40071e-12 0 1.46476e-27
165 2 0.001 -0.0174999 0 -0.0385738 2.7719e-25 0 -6.3117e-12 0 9.27952e-28
166 2 0.001 -0.0174999 0 -0.0379362 2.7719e-25 0 2.59209e-12 0 1.8656e-28
314 3 0.001 -0.0125001 0 -0.0392114 -2.7719e-25 0 8.40071e-12 0 1.46476e-27
315 3 0.001 -0.0125001 0 -0.0385738 -2.7719e-25 0 -6.3117e-12 0 9.27952e-28
316 3 0.001 -0.0125001 0 -0.0379362 -2.7719e-25 0 2.59209e-12 0 1.8656e-28
464 4 0.001 -0.00750009 0 -0.0392114 -2.7719e-25 0 8.40071e-12 0 1.46476e-27
465 4 0.001 -0.00750009 0 -0.0385738 -2.7719e-25 0 -6.3117e-12 0 9.27952e-28
466 4 0.001 -0.00750009 0 -0.0379362 -2.7719e-25 0 2.59209e-12 0 1.8656e-28
614 5 0.001 -0.00250009 0 -0.0392114 -2.7719e-25 0 8.40071e-12 0 1.46476e-27
615 5 0.001 -0.00250009 0 -0.0385738 -2.7719e-25 0 -6.3117e-12 0 9.27952e-28
616 5 0.001 -0.00250009 0 -0.0379362 -2.7719e-25 0 2.59209e-12 0 1.8656e-28
764 6 0.001 0.00250009 0 -0.0392114 2.7719e-25 0 8.40071e-12 0 1.46476e-27
765 6 0.001 0.00250009 0 -0.0385738 2.7719e-25 0 -6.3117e-12 0 9.27952e-28
766 6 0.001 0.00250009 0 -0.0379362 2.7719e-25 0 2.59209e-12 0 1.8656e-28
914 7 0.001 0.00749991 0 -0.0392114 -2.7719e-25 0 8.40071e-12 0 1.46476e-27
915 7 0.001 0.00749991 0 -0.0385738 -2.7719e-25 0 -6.3117e-12 0 9.27952e-28
916 7 0.001 0.00749991 0 -0.0379362 -2.7719e-25 0 2.59209e-12 0 1.8656e-28
1064 8 0.001 0.0125001 0 -0.0392114 2.7719e-25 0 8.40071e-12 0 1.46476e-27
1065 8 0.001 0.0125001 0 -0.0385738 2.7719e-25 0 -6.3117e-12 0 9.27952e-28
1066 8 0.001 0.0125001 0 -0.0379362 2.7719e-25 0 2.59209e-12 0 1.8656e-28
1214 9 0.001 0.0174999 0 -0.0392114 -2.7719e-25 0 8.40071e-12 0 1.46476e-27
1215 9 0.001 0.0174999 0 -0.0385738 -2.7719e-25 0 -6.3117e-12 0 9.27952e-28
1216 9 0.001 0.0174999 0 -0.0379362 -2.7719e-25 0 2.59209e-12 0 1.8656e-28
1364 10 0.001 0.0224999 0 -0.0392114 -2.7719e-25 0 8.40071e-12 0 1.46476e-27
1365 10 0.001 0.0224999 0 -0.0385738 -2.7719e-25 0 -6.3117e-12 0 9.27952e-28
1366 10 0.001 0.0224999 0 -0.0379362 -2.7719e-25 0 2.59209e-12 0 1.8656e-28
17 1 0.001 -0.0224999 0 -0.0372987 2.7719e-25 0 3.76311e-13 0 4.71024e-29
18 1 0.001 -0.0224999 0 -0.0366611 2.7719e-25 0 -5.43321e-13 0 4.07499e-29
167 2 0.001 -0.0174999 0 -0.0372987 2.7719e-25 0 3.76311e-13 0 4.71024e-29
168 2 0.001 -0.0174999 0 -0.0366611 2.7719e-25 0 -5.43321e-13 0 4.07499e-29
317 3 0.001 -0.0125001 0 -0.0372987 -2.7719e-25 0 3.76311e-13 0 4.71024e-29
318 3 0.001 -0.0125001 0 -0.0366611 -2.7719e-25 0 -5.43321e-13 0 4.07499e-29
467 4 0.001 -0.00750009 0 -0.0372987 -2.7719e-25 0 3.76311e-13 0 4.71024e-29
468 4 0.001 -0.00750009 0 -0.0366611 -2.7719e-25 0 -5.43321e-13 0 4.07499e-29
617 5 0.001 -0.00250009 0 -0.0372987 -2.7719e-25 0 3.76311e-13 0 4.71024e-29
618 5 0.001 -0.00250009 0 -0.0366611 -2.7719e-25 0 -5.43321e-13 0 4.07499e-29
767 6 0.001 0.00250009 0 -0.0372987 2.7719e-25 0 3.76311e-13 0 4.71024e-29
768 6 0.001 0.00250009 0 -0.0366611 2.7719e-25 0 -5.43321e-13 0 4.07499e-29
917 7 0.001 0.00749991 0 -0.0372987 -2.7719e-25 0 3.76311e-13 0 4.71024e-29
918 7 0.001 0.00749991 0 -0.0366611 -2.7719e-25 0 -5.43321e-13 0 4.07499e-29
1067 8 0.001 0.0125001 0 -0.0372987 2.7719e-25 0 3.76311e-13 0 4.71024e-29
1068 8 0.001 0.0125001 0 -0.0366611 2.7719e-25 0 -5.43321e-13 0 4.07499e-29
1217 9 0.001 0.0174999 0 -0.0372987 -2.7719e-25 0 3.76311e-13 0 4.71024e-29
1218 9 0.001 0.0174999 0 -0.0366611 -2.7719e-25 0 -5.43321e-13 0 4.07499e-29
1367 10 0.001 0.0224999 0 -0.0372987 -2.7719e-25 0 3.76311e-13 0 4.71024e-29
1368 10 0.001 0.0224999 0 -0.0366611 -2.7719e-25 0 -5.43321e-13 0 4.07499e-29
19 1 0.001 -0.0224999 0 -0.0360235 2.7719e-25 0 -1.17021e-12 0 3.21115e-29
20 1 0.001 -0.0224999 0 -0.0353859 2.7719e-25 0 3.38579e-12 0 3.04554e-28
169 2 0.001 -0.0174999 0 -0.0360235 2.7719e-25 0 -1.17021e-12 0 3.21115e-29
170 2 0.001 -0.0174999 0 -0.0353859 2.7719e-25 0 3.38579e-12 0 3.04554e-28
319 3 0.001 -0.0125001 0 -0.0360235 -2.7719e-25 0 -1.17021e-12 0 3.21115e-29
320 3 0.001 -0.0125001 0 -0.0353859 -2.7719e-25 0 3.38579e-12 0 3.04554e-28
469 4 0.001 -0.00750009 0 -0.0360235 -2.7719e-25 0 -1.17021e-12 0 3.21115e-29
470 4 0.001 -0.00750009 0 -0.0353859 -2.7719e-25 0 3.38579e-12 0 3.04554e-28
619 5 0.001 -0.00250009 0 -0.0360235 -2.7719e-25 0 -1.17021e-12 0 3.21115e-29
620 5 0.001 -0.00250009 0 -0.0353859 -2.7719e-25 0 3.38579e-12 0 3.04554e-28
769 6 0.001 0.00250009 0 -0.0360235 2.7719e-25 0 -1.17021e-12 0 3.21115e-29
770 6 0.001 0.00250009 0 -0.0353859 2.7719e-25 0 3.38579e-12 0 3.04554e-28
919 7 0.001 0.00749991 0 -0.0360235 -2.7719e-25 0 -1.17021e-12 0 3.21115e-29
920 7 0.001 0.00749991 0 -0.0353859 -2.7719e-25 0 3.38579e-12 0 3.04554e-28
1069 8 0.001 0.0125001 0 -0.0360235 2.7719e-25 0 -1.17021e-12 0 3.21115e-29
1070 8 0.001 0.0125001 0 -0.0353859 2.7719e-25 0 3.38579e-12 0 3.04554e-28
1219 9 0.001 0.0174999 0 -0.0360235 -2.7719e-25 0 -1.17021e-12 0 3.21115e-29
1220 9 0.001 0.0174999 0 -0.0353859 -2.7719e-25 0 3.38579e-12 0 3.04554e-28
1369 10 0.001 0.0224999 0 -0.0360235 -2.7719e-25 0 -1.17021e-12 0 3.21115e-29
1370 10 0.001 0.0224999 0 -0.0353859 -2.7719e-25 0 3.38579e-12 0 3.04554e-28
21 1 0.001 -0.0224999 0 -0.0347483 2.7719e-25 0 -1.08236e-11 0 3.09309e-27
22 1 0.001 -0.0224999 0 -0.0341107 2.7719e-25 0 1.29544e-11 0 3.73977e-27
23 1 0.001 -0.0224999 0 -0.0334732 2.7719e-25 0 -3.30231e-12 0 1.00851e-27
171 2 0.001 -0.0174999 0 -0.0347483 2.7719e-25 0 -1.08236e-11 0 3.09309e-27
172 2 0.001 -0.0174999 0 -0.0341107 2.7719e-25 0 1.29544e-11 0 3.73977e-27
173 2 0.001 -0.0174999 0 -0.0334732 2.7719e-25 0 -3.30231e-12 0 1.00851e-27
321 3 0.001 -0.0125001 0 -0.0347483 -2.7719e-25 0 -1.08236e-11 0 3.09309e-27
322 3 0.001 -0.0125001 0 -0.0341107 -2.7719e-25 0 1.29544e-11 0 3.73977e-27
323 3 0.001 -0.0125001 0 -0.0334732 -2.7719e-25 0 -3.30231e-12 0 1.00851e-27
471 4 0.001 -0.00750009 0 -0.0347483 -2.7719e-25 0 -1.08236e-11 0 3.09309e-27
472 4 0.001 -0.00750009 0 -0.0341107 -2.7719e-25 0 1.29544e-11 0 3.73977e-27
473 4 0.001 -0.00750009 0 -0.0334732 -2.7719e-25 0 -3.30231e-12 0 1.00851e-27
621 5 0.001 -0.00250009 0 -0.0347483 -2.7719e-25 0 -1.08236e-11 0 3.09309e-27
622 5 0.001 -0.00250009 0 -0.0341107 -2.7719e-25 0 1.29544e-11 0 3.73977e-27
623 5 0.001 -0.00250009 0 -0.0334732 -2.7719e-25 0 -3.30231e-12 0 1.00851e-27
771 6 0.001 0.00250009 0 -0.0347483 2.7719e-25 0 -1.08236e-11 0 3.09309e-27
772 6 0.001 0.00250009 0 -0.0341107 2.7719e-25 0 1.29544e-11 0 3.73977e-27
773 6 0.001 0.00250009 0 -0.0334732 2.7719e-25 0 -3.30231e-12 0 1.00851e-27
921 7 0.001 0.00749991 0 -0.0347483 -2.7719e-25 0 -1.08236e-11 0 3.09309e-27
922 7 0.001 0.00749991 0 -0.0341107 -2.7719e-25 0 1.29544e-11 0 3.73977e-27
923 7 0.001 0.00749991 0 -0.0334732 -2.7719e-25 0 -3.30231e-12 0 1.00851e-27
1071 8 0.001 0.0125001 0 -0.0347483 2.7719e-25 0 -1.08236e-11 0 3.09309e-27
1072 8 0.001 0.0125001 0 -0.0341107 2.7719e-25 0 1.29544e-11 0 3.73977e-27
1073 8 0.001 0.0125001 0 -0.0334732 2.7719e-25 0 -3.30231e-12 0 1.00851e-27
1221 9 0.001 0.0174999 0 -0.0347483 -2.7719e-25 0 -1.08236e-11 0 3.09309e-27
1222 9 0.001 0.0174999 0 -0.0341107 -2.7719e-25 0 1.29544e-11 0 3.73977e-27
1223 9 0.001 0.0174999 0 -0.0334732 -2.7719e-25 0 -3.30231e-12 0 1.00851e-27
1371 10 0.001 0.0224999 0 -0.0347483 -2.7719e-25 0 -1.08236e-11 0 3.09309e-27
1372 10 0.001 0.0224999 0 -0.0341107 -2.7719e-25 0 1.29544e-11 0 3.73977e-27
1373 10 0.001 0.0224999 0 -0.0334732 -2.7719e-25 0 -3.30231e-12 0 1.00851e-27
24 1 0.001 -0.0224999 0 -0.0328356 2.7719e-25 0 -7.93792e-13 0 9.97843e-29
25 1 0.001 -0.0224999 0 -0.032198 2.7719e-25 0 -7.51766e-13 0 1.68828e-29
174 2 0.001 -0.0174999 0 -0.0328356 2.7719e-25 0 -7.93792e-13 0 9.97843e-29
175 2 0.001 -0.0174999 0 -0.032198 2.7719e-25 0 -7.51766e-13 0 1.68828e-29
324 3 0.001 -0.0125001 0 -0.0328356 -2.7719e-25 0 -7.93792e-13 0 9.97843e-29
325 3 0.001 -0.0125001 0 -0.032198 -2.7719e-25 0 -7.51766e-13 0 1.68828e-29
474 4 0.001 -0.00750009 0 -0.0328356 -2.7719e-25 0 -7.93792e-13 0 9.97843e-29
475 4 0.001 -0.00750009 0 -0.032198 -2.7719e-25 0 -7.51766e-13 0 1.68828e-29
624 5 0.001 -0.00250009 0 -0.0328356 -2.7719e-25 0 -7.93792e-13 0 9.97843e-29
625 5 0.001 -0.00250009 0 -0.032198 -2.7719e-25 0 -7.51766e-13 0 1.68828e-29
774 6 0.001 0.00250009 0 -0.0328356 2.7719e-25 0 -7.93792e-13 0 9.97843e-29
775 6 0.001 0.00250009 0 -0.032198 2.7719e-25 0 -7.51766e-13 0 1.68828e-29
924 7 0.001 0.00749991 0 -0.0328356 -2.7719e-25 0 -7.93792e-13 0 9.97843e-29
925 7 0.001 0.00749991 0 -0.032198 -2.7719e-25 0 -7.51766e-13 0 1.68828e-29
1074 8 0.001 0.0125001 0 -0.0328356 2.7719e-25 0 -7.93792e-13 0 9.97843e-29
1075 8 0.001 0.0125001 0 -0.032198 2.7719e-25 0 -7.51766e-13 0 1.68828e-29
1224 9 0.001 0.0174999 0 -0.0328356 -2.7719e-25 0 -7.93792e-13 0 9.97843e-29
1225 9 0.001 0.0174999 0 -0.032198 -2.7719e-25 0 -7.51766e-13 0 1.68828e-29
1374 10 0.001 0.0224999 0 -0.0328356 -2.7719e-25 0 -7.93792e-13 0 9.97843e-29
1375 10 0.001 0.0224999 0 -0.032198 -2.7719e-25 0 -7.51766e-13 0 1.68828e-29
26 1 0.001 -0.0224999 0 -0.0315604 2.7719e-25 0 -4.2767e-14 0 1.8603e-30
27 1 0.001 -0.0224999 0 -0.0309228 2.7719e-25 0 -2.23569e-12 0 2.41268e-28
176 2 0.001 -0.0174999 0 -0.0315604 2.7719e-25 0 -4.2767e-14 0 1.8603e-30
177 2 0.001 -0.0174999 0 -0.0309228 2.7719e-25 0 -2.23569e-12 0 2.41268e-28
326 3 0.001 -0.0125001 0 -0.0315604 -2.7719e-25 0 -4.2767e-14 0 1.8603e-30
327 3 0.001 -0.0125001 0 -0.0309228 -2.7719e-25 0 -2.23569e-12 0 2.41268e-28
476 4 0.001 -0.00750009 0 -0.0315604 -2.7719e-25 0 -4.2767e-14 0 1.8603e-30
477 4 0.001 -0.00750009 0 -0.0309228 -2.7719e-25 0 -2.23569e-12 0 2.41268e-28
626 5 0.001 -0.00250009 0 -0.0315604 -2.7719e-25 0 -4.2767e-14 0 1.8603e-30
627 5 0.001 -0.00250009 0 -0.0309228 -2.7719e-25 0 -2.23569e-12 0 2.41268e-28
776 6 0.001 0.00250009 0 -0.0315604 2.7719e-25 0 -4.2767e-14 0 1.8603e-30
777 6 0.001 0.00250009 0 -0.0309228 2.7719e-25 0 -2.23569e-12 0 2.41268e-28
926 7 0.001 0.00749991 0 -0.0315604 -2.7719e-25 0 -4.2767e-14 0 1.8603e-30
927 7 0.001 0.00749991 0 -0.0309228 -2.7719e-25 0 -2.23569e-12 0 2.41268e-28
1076 8 0.001 0.0125001 0 -0.0315604 2.7719e-25 0 -4.2767e-14 0 1.8603e-30
1077 8 0.001 0.0125001 0 -0.0309228 2.7719e-25 0 -2.23569e-12 0 2.41268e-28
1226 9 0.001 0.0174999 0 -0.0315604 -2.7719e-25 0 -4.2767e-14 0 1.8603e-30
1227 9 0.001 0.0174999 0 -0.0309228 -2.7719e-25 0 -2.23569e-12 0 2.41268e-28
1376 10 0.001 0.0224999 0 -0.0315604 -2.7719e-25 0 -4.2767e-14 0 1.8603e-30
1377 10 0.001 0.0224999 0 -0.0309228 -2.7719e-25 0 -2.23569e-12 0 2.41268e-28
28 1 0.001 -0.0224999 0 -0.0302852 2.7719e-25 0 1.79832e-12 0 2.55422e-28
29 1 0.001 -0.0224999 0 -0.0296477 2.7719e-25 0 2.23621e-12 0 1.25343e-28
30 1 0.001 -0.0224999 0 -0.0290101 2.7719e-25 0 -4.0955e-12 0 3.62762e-28
178 2 0.001 -0.0174999 0 -0.0302852 2.7719e-25 0 1.79832e-12 0 2.55422e-28
179 2 0.001 -0.0174999 0 -0.0296477 2.7719e-25 0 2.23621e-12 0 1.25343e-28
180 2 0.001 -0.0174999 0 -0.0290101 2.7719e-25 0 -4.0955e-12 0 3.62762e-28
328 3 0.001 -0.0125001 0 -0.0302852 -2.7719e-25 0 1.79832e-12 0 2.55422e-28
329 3 0.001 -0.0125001 0 -0.0296477 -2.7719e-25 0 2.23621e-12 0 1.25343e-28
330 3 0.001 -0.0125001 0 -0.0290101 -2.7719e-25 0 -4.0955e-12 0 3.62762e-28
478 4 0.001 -0.00750009 0 -0.0302852 -2.7719e-25 0 1.79832e-12 0 2.55422e-28
479 4 0.001 -0.00750009 0 -0.0296477 -2.7719e-25 0 2.23621e-12 0 1.25343e-28
480 4 0.001 -0.00750009 0 -0.0290101 -2.7719e-25 0 -4.0955e-12 0 3.62762e-28
628 5 0.001 -0.00250009 0 -0.0302852 -2.7719e-25 0 1.79832e-12 0 2.55422e-28
629 5 0.001 -0.00250009 0 -0.0296477 -2.7719e-25 0 2.23621e-12 0 1.25343e-28
630 5 0.001 -0.00250009 0 -0.0290101 -2.7719e-25 0 -4.0955e-12 0 3.62762e-28
778 6 0.001 0.00250009 0 -0.0302852 2.7719e-25 0 1.79832e-12 0 2.55422e-28
779 6 0.001 0.00250009 0 -0.0296477 2.7719e-25 0 2.23621e-12 0 1.25343e-28
780 6 0.001 0.00250009 0 -0.0290101 2.7719e-25 0 -4.0955e-12 0 3.62762e-28
928 7 0.001 0.00749991 0 -0.0302852 -2.7719e-25 0 1.79832e-12 0 2.55422e-28
929 7 0.001 0.00749991 0 -0.0296477 -2.7719e-25 0 2.23621e-12 0 1.25343e-28
930 7 0.001 0.00749991 0 -0.0290101 -2.7719e-25 0 -4.0955e-12 0 3.62762e-28
1078 8 0.001 0.0125001 0 -0.0302852 2.7719e-25 0 1.79832e-12 0 2.55422e-28
1079 8 0.001 0.0125001 0 -0.0296477 2.7719e-25 0 2.23621e-12 0 1.25343e-28
1080 8 0.001 0.0125001 0 -0.0290101 2.7719e-25 0 -4.0955e-12 0 3.62762e-28
1228 9 0.001 0.0174999 0 -0.0302852 -2.7719e-25 0 1.79832e-12 0 2.55422e-28
1229 9 0.001 0.0174999 0 -0.0296477 -2.7719e-25 0 2.23621e-12 0 1.25343e-28
1230 9 0.001 0.0174999 0 -0.0290101 -2.7719e-25 0 -4.0955e-12 0 3.62762e-28
1378 10 0.001 0.0224999 0 -0.0302852 -2.7719e-25 0 1.79832e-12 0 2.55422e-28
1379 10 0.001 0.0224999 0 -0.0296477 -2.7719e-25 0 2.23621e-12 0 1.25343e-28
1380 10 0.001 0.0224999 0 -0.0290101 -2.7719e-25 0 -4.0955e-12 0 3.62762e-28
31 1 0.001 -0.0224999 0 -0.0283725 2.7719e-25 0 4.99401e-12 0 5.17703e-28
32 1 0.001 -0.0224999 0 -0.0277349 2.7719e-25 0 -2.27807e-12 0 2.67512e-28
181 2 0.001 -0.0174999 0 -0.0283725 2.7719e-25 0 4.99401e-12 0 5.17703e-28
182 2 0.001 -0.0174999 0 -0.0277349 2.7719e-25 0 -2.27807e-12 0 2.67512e-28
331 3 0.001 -0.0125001 0 -0.0283725 -2.7719e-25 0 4.99401e-12 0 5.17703e-28
332 3 0.001 -0.0125001 0 -0.0277349 -2.7719e-25 0 -2.27807e-12 0 2.67512e-28
481 4 0.001 -0.00750009 0 -0.0283725 -2.7719e-25 0 4.99401e-12 0 5.17703e-28
482 4 0.001 -0.00750009 0 -0.0277349 -2.7719e-25 0 -2.27807e-12 0 2.67512e-28
631 5 0.001 -0.00250009 0 -0.0283725 -2.7719e-25 0 4.99401e-12 0 5.17703e-28
632 5 0.001 -0.00250009 0 -0.0277349 -2.7719e-25 0 -2.27807e-12 0 2.67512e-28
781 6 0.001 0.00250009 0 -0.0283725 2.7719e-25 0 4.99401e-12 0 5.17703e-28
782 6 0.001 0.00250009 0 -0.0277349 2.7719e-25 0 -2.27807e-12 0 2.67512e-28
931 7 0.001 0.00749991 0 -0.0283725 -2.7719e-25 0 4.99401e-12 0 5.17703e-28
932 7 0.001 0.00749991 0 -0.0277349 -2.7719e-25 0 -2.27807e-12 0 2.67512e-28
1081 8 0.001 0.0125001 0 -0.0283725 2.7719e-25 0 4.99401e-12 0 5.17703e-28
1082 8 0.001 0.0125001 0 -0.0277349 2.7719e-25 0 -2.27807e-12 0 2.67512e-28
1231 9 0.001 0.0174999 0 -0.0283725 -2.7719e-25 0 4.99401e-12 0 5.17703e-28
1232 9 0.001 0.0174999 0 -0.0277349 -2.7719e-25 0 -2.27807e-12 0 2.67512e-28
1381 10 0.001 0.0224999 0 -0.0283725 -2.7719e-25 0 4.99401e-12 0 5.17703e-28
1382 10 0.001 0.0224999 0 -0.0277349 -2.7719e-25 0 -2.27807e-12 0 2.67512e-28
33 1 0.001 -0.0224999 0 -0.0270973 2.7719e-25 0 1.75484e-12 0 1.69274e-28
34 1 0.001 -0.0224999 0 -0.0264597 2.7719e-25 0 -3.30148e-12 0 2.36584e-28
35 1 0.001 -0.0224999 0 -0.0258221 2.7719e-25 0 -1.3592e-12 0 3.62634e-28
183 2 0.001 -0.0174999 0 -0.0270973 2.7719e-25 0 1.75484e-12 0 1.69274e-28
184 2 0.001 -0.0174999 0 -0.0264597 2.7719e-25 0 -3.30148e-12 0 2.36584e-28
185 2 0.001 -0.0174999 0 -0.0258221 2.7719e-25 0 -1.3592e-12 0 3.62634e-28
333 3 0.001 -0.0125001 0 -0.0270973 -2.7719e-25 0 1.75484e-12 0 1.69274e-28
334 3 0.001 -0.0125001 0 -0.0264597 -2.7719e-25 0 -3.30148e-12 0 2.36584e-28
335 3 0.001 -0.0125001 0 -0.0258221 -2.7719e-25 0 -1.3592e-12 0 3.62634e-28
483 4 0.001 -0.00750009 0 -0.0270973 -2.7719e-25 0 1.75484e-12 0 1.69274e-28
484 4 0.001 -0.00750009 0 -0.0264597 -2.7719e-25 0 -3.30148e-12 0 2.36584e-28
485 4 0.001 -0.00750009 0 -0.0258221 -2.7719e-25 0 -1.3592e-12 0 3.62634e-28
633 5 0.001 -0.00250009 0 -0.0270973 -2.7719e-25 0 1.75484e-12 0 1.69274e-28
634 5 0.001 -0.00250009 0 -0.0264597 -2.7719e-25 0 -3.30148e-12 0 2.36584e-28
635 5 0.001 -0.00250009 0 -0.0258221 -2.7719e-25 0 -1.3592e-12 0 3.62634e-28
783 6 0.001 0.00250009 0 -0.0270973 2.7719e-25 0 1.75484e-12 0 1.69274e-28
784 6 0.001 0.00250009 0 -0.0264597 2.7719e-25 0 -3.30148e-12 0 2.36584e-28
785 6 0.001 0.00250009 0 -0.0258221 2.7719e-25 0 -1.3592e-12 0 3.62634e-28
933 7 0.001 0.00749991 0 -0.0270973 -2.7719e-25 0 1.75484e-12 0 1.69274e-28
934 7 0.001 0.00749991 0 -0.0264597 -2.7719e-25 0 -3.30148e-12 0 2.36584e-28
935 7 0.001 0.00749991 0 -0.0258221 -2.7719e-25 0 -1.3592e-12 0 3.62634e-28
1083 8 0.001 0.0125001 0 -0.0270973 2.7719e-25 0 1.75484e-12 0 1.69274e-28
1084 8 0.001 0.0125001 0 -0.0264597 2.7719e-25 0 -3.30148e-12 0 2.36584e-28
1085 8 0.001 0.0125001 0 -0.0258221 2.7719e-25 0 -1.3592e-12 0 3.62634e-28
1233 9 0.001 0.0174999 0 -0.0270973 -2.7719e-25 0 1.75484e-12 0 1.69274e-28
1234 9 0.001 0.0174999 0 -0.0264597 -2.7719e-25 0 -3.30148e-12 0 2.36584e-28
1235 9 0.001 0.0174999 0 -0.0258221 -2.7719e-25 0 -1.3592e-12 0 3.62634e-28
1383 10 0.001 0.0224999 0 -0.0270973 -2.7719e-25 0 1.75484e-12 0 1.69274e-28
1384 10 0.001 0.0224999 0 -0.0264597 -2.7719e-25 0 -3.30148e-12 0 2.36584e-28
1385 10 0.001 0.0224999 0 -0.0258221 -2.7719e-25 0 -1.3592e-12 0 3.62634e-28
36 1 0.001 -0.0224999 0 -0.0251846 2.7719e-25 0 2.34165e-12 0 2.96883e-28
37 1 0.001 -0.0224999 0 -0.024547 2.7719e-25 0 4.63944e-12 0 7.80022e-28
186 2 0.001 -0.0174999 0 -0.0251846 2.7719e-25 0 2.34165e-12 0 2.96883e-28
187 2 0.001 -0.0174999 0 -0.024547 2.7719e-25 0 4.63944e-12 0 7.80022e-28
336 3 0.001 -0.0125001 0 -0.0251846 -2.7719e-25 0 2.34165e-12 0 2.96883e-28
337 3 0.001 -0.0125001 0 -0.024547 -2.7719e-25 0 4.63944e-12 0 7.80022e-28
486 4 0.001 -0.00750009 0 -0.0251846 -2.7719e-25 0 2.34165e-12 0 2.96883e-28
487 4 0.001 -0.00750009 0 -0.024547 -2.7719e-25 0 4.63944e-12 0 7.80022e-28
636 5 0.001 -0.00250009 0 -0.0251846 -2.7719e-25 0 2.34165e-12 0 2.96883e-28
637 5 0.001 -0.00250009 0 -0.024547 -2.7719e-25 0 4.63944e-12 0 7.80022e-28
786 6 0.001 0.00250009 0 -0.0251846 2.7719e-25 0 2.34165e-12 0 2.96883e-28
787 6 0.001 0.00250009 0 -0.024547 2.7719e-25 0 4.63944e-12 0 7.80022e-28
936 7 0.001 0.00749991 0 -0.0251846 -2.7719e-25 0 2.34165e-12 0 2.96883e-28
937 7 0.001 0.00749991 0 -0.024547 -2.7719e-25 0 4.63944e-12 0 7.80022e-28
1086 8 0.001 0.0125001 0 -0.0251846 2.7719e-25 0 2.34165e-12 0 2.96883e-28
1087 8 0.001 0.0125001 0 -0.024547 2.7719e-25 0 4.63944e-12 0 7.80022e-28
1236 9 0.001 0.0174999 0 -0.0251846 -2.7719e-25 0 2.34165e-12 0 2.96883e-28
1237 9 0.001 0.0174999 0 -0.024547 -2.7719e-25 0 4.63944e-12 0 7.80022e-28
1386 10 0.001 0.0224999 0 -0.0251846 -2.7719e-25 0 2.34165e-12 0 2.96883e-28
1387 10 0.001 0.0224999 0 -0.024547 -2.7719e-25 0 4.63944e-12 0 7.80022e-28
38 1 0.001 -0.0224999 0 -0.0239094 2.7719e-25 0 -6.08272e-12 0 9.04061e-28
39 1 0.001 -0.0224999 0 -0.0232718 2.7719e-25 0 2.46686e-12 0 1.49005e-28
188 2 0.001 -0.0174999 0 -0.0239094 2.7719e-25 0 -6.08272e-12 0 9.04061e-28
189 2 0.001 -0.0174999 0 -0.0232718 2.7719e-25 0 2.46686e-12 0 1.49005e-28
338 3 0.001 -0.0125001 0 -0.0239094 -2.7719e-25 0 -6.08272e-12 0 9.04061e-28
339 3 0.001 -0.0125001 0 -0.0232718 -2.7719e-25 0 2.46686e-12 0 1.49005e-28
488 4 0.001 -0.00750009 0 -0.0239094 -2.7719e-25 0 -6.08272e-12 0 9.04061e-28
489 4 0.001 -0.00750009 0 -0.0232718 -2.7719e-25 0 2.46686e-12 0 1.49005e-28
638 5 0.001 -0.00250009 0 -0.0239094 -2.7719e-25 0 -6.08272e-12 0 9.04061e-28
639 5 0.001 -0.00250009 0 -0.0232718 -2.7719e-25 0 2.46686e-12 0 1.49005e-28
788 6 0.001 0.00250009 0 -0.0239094 2.7719e-25 0 -6.08272e-12 0 9.04061e-28
789 6 0.001 0.00250009 0 -0.0232718 2.7719e-25 0 2.46686e-12 0 1.49005e-28
938 7 0.001 0.00749991 0 -0.0239094 -2.7719e-25 0 -6.08272e-12 0 9.04061e-28
939 7 0.001 0.00749991 0 -0.0232718 -2.7719e-25 0 2.46686e-12 0 1.49005e-28
1088 8 0.001 0.0125001 0 -0.0239094 2.7719e-25 0 -6.08272e-12 0 9.04061e-28
1089 8 0.001 0.0125001 0 -0.0232718 2.7719e-25 0 2.46686e-12 0 1.49005e-28
1238 9 0.001 0.0174999 0 -0.0239094 -2.7719e-25 0 -6.08272e-12 0 9.04061e-28
1239 9 0.001 0.0174999 0 -0.0232718 -2.7719e-25 0 2.46686e-12 0 1.49005e-28
1388 10 0.001 0.0224999 0 -0.0239094 -2.7719e-25 0 -6.08272e-12 0 9.04061e-28
1389 10 0.001 0.0224999 0 -0.0232718 -2.7719e-25 0 2.46686e-12 0 1.49005e-28
40 1 0.001 -0.0224999 0 -0.0226342 2.7719e-25 0 -5.42566e-13 0 2.19689e-29