ITEM: TIMESTEP
4400000
ITEM: NUMBER OF ATOMS
1500
ITEM: BOX BOUNDS ff ff ff
-2.5000000000000001e-02 2.5000000000000001e-02
-5.0000000000000001e-03 5.0000000000000001e-03
-5.0000000000000003e-02 5.0000000000000003e-02
ITEM: ATOMS id type radius x y z fx fy fz c_bendingE c_stretchingE
1 1 0.001 -0.0225 0 -0.03914 -0.228692 0 -3.8e-09 1.76737e-06 1.59293e-34
2 1 0.001 -0.0225 0 -0.0385024 0.228063 0 -0.0168054 3.52563e-06 1.1725e-08
3 1 0.001 -0.0224539 0 -0.0378693 -7.24289e-11 0 7.49079e-12 5.25621e-06 2.33288e-08
151 2 0.001 -0.0175 0 -0.03914 -0.223609 0 -3.8e-09 1.68957e-06 1.59293e-34
152 2 0.001 -0.0175 0 -0.0385024 0.223777 0 -0.0172606 3.35822e-06 1.22874e-08
153 2 0.001 -0.0174549 0 -0.0378693 6.87789e-11 0 -6.85844e-12 4.98812e-06 2.43739e-08
301 3 0.001 -0.0125 0 -0.03914 -0.211877 0 -3.8e-09 1.51674e-06 1.59293e-34
302 3 0.001 -0.0125 0 -0.0385024 0.212509 0 -0.0182587 3.00707e-06 1.37115e-08
303 3 0.001 -0.0124573 0 -0.0378693 1.25025e-11 0 -2.67883e-12 4.45434e-06 2.71759e-08
451 4 0.001 -0.0075 0 -0.03914 -0.184249 0 -3.8e-09 1.14666e-06 1.59293e-34
452 4 0.001 -0.0075 0 -0.0385024 0.183667 0 -0.0220488 2.28457e-06 2.0173e-08
453 4 0.001 -0.00746291 0 -0.0378696 3.54605e-11 0 -1.72642e-12 3.39803e-06 4.02021e-08
601 5 0.001 -0.0025 0 -0.03914 -0.160048 0 -3.8e-09 8.65033e-07 1.59293e-34
602 5 0.001 -0.0025 0 -0.0385024 0.163469 0 -0.0162726 1.68496e-06 1.07299e-08
603 5 0.001 -0.00246773 0 -0.0378683 4.35082e-12 0 -4.18616e-12 2.45296e-06 2.11553e-08
751 6 0.001 0.0025 0 -0.03914 -0.116643 0 -3.8e-09 4.59319e-07 1.59293e-34
752 6 0.001 0.0025 0 -0.0385024 0.121444 0 -0.00976282 8.78988e-07 3.80821e-09
753 6 0.001 0.00252356 0 -0.0378669 -2.53769e-12 0 9.63479e-14 1.25839e-06 7.46784e-09
901 7 0.001 0.0075 0 -0.03914 -0.0743237 0 -3.8e-09 1.86452e-07 1.59293e-34
902 7 0.001 0.0075 0 -0.0385024 0.078344 0 -0.00806172 3.5242e-07 2.63312e-09
903 7 0.001 0.00751502 0 -0.0378663 9.49234e-12 0 -2.54667e-12 4.98314e-07 5.20333e-09
1051 8 0.001 0.0125 0 -0.03914 -0.0451101 0 -3.8e-09 6.86784e-08 1.59293e-34
1052 8 0.001 0.0125 0 -0.0385024 0.0485914 0 -0.00755595 1.26882e-07 2.3382e-09
1053 8 0.001 0.0125091 0 -0.0378661 -4.46686e-12 0 3.30116e-12 1.75225e-07 4.64659e-09
1201 9 0.001 0.0175 0 -0.03914 -0.0263655 0 -3.8e-09 2.34601e-08 1.59293e-34
1202 9 0.001 0.0175 0 -0.0385024 0.0296576 0 -0.00771031 4.13373e-08 2.44989e-09
1203 9 0.001 0.0175053 0 -0.0378661 -3.78594e-11 0 3.83223e-12 5.4315e-08 4.88403e-09
1351 10 0.001 0.0225 0 -0.03914 -0.00984894 0 -3.8e-09 3.27364e-09 1.59293e-34
1352 10 0.001 0.0225 0 -0.0385024 0.0129429 0 -0.00727397 4.80591e-09 2.19042e-09
1353 10 0.001 0.022502 0 -0.037866 -4.25266e-11 0 3.45338e-12 5.24618e-09 4.37681e-09
4 1 0.001 -0.022362 0 -0.0372412 -1.33629e-10 0 1.33201e-11 5.17389e-06 2.29685e-08
5 1 0.001 -0.0222253 0 -0.0366212 -2.97133e-10 0 4.40337e-11 5.03851e-06 2.2382e-08
154 2 0.001 -0.0173653 0 -0.0372409 2.12731e-10 0 -1.53348e-11 4.87289e-06 2.38589e-08
155 2 0.001 -0.017232 0 -0.0366203 3.97906e-10 0 -6.43887e-11 4.70766e-06 2.313e-08
304 3 0.001 -0.0123725 0 -0.0372404 5.70214e-11 0 -3.51371e-12 4.32634e-06 2.65715e-08
305 3 0.001 -0.0122465 0 -0.0366184 1.0936e-10 0 -1.30809e-11 4.15228e-06 2.57607e-08
454 4 0.001 -0.00738898 0 -0.03724 4.26185e-11 0 -9.4492e-12 3.32544e-06 3.9783e-08
455 4 0.001 -0.00727887 0 -0.0366156 1.26326e-10 0 -2.26853e-11 3.20852e-06 3.91125e-08
604 5 0.001 -0.00240411 0 -0.0372366 -1.06665e-11 0 1.49034e-13 2.2983e-06 2.05126e-08
605 5 0.001 -0.0023103 0 -0.0366085 1.7749e-12 0 -9.43079e-12 2.12673e-06 1.98111e-08
754 6 0.001 0.00256961 0 -0.0372325 4.62731e-12 0 -7.22529e-12 1.13813e-06 7.1724e-09
755 6 0.001 0.002637 0 -0.0366 -1.39818e-12 0 -2.7566e-13 1.01759e-06 6.88227e-09
904 7 0.001 0.0075442 0 -0.0372307 1.74579e-11 0 6.99562e-13 4.38301e-07 5.07983e-09
905 7 0.001 0.00758665 0 -0.0365958 4.85474e-11 0 9.86706e-13 3.80136e-07 4.96155e-09
1054 8 0.001 0.0125266 0 -0.03723 -1.00566e-11 0 -3.91946e-12 1.45738e-07 4.58909e-09
1055 8 0.001 0.0125518 0 -0.0365942 -2.89014e-11 0 4.70932e-12 1.18371e-07 4.53604e-09
1204 9 0.001 0.0175153 0 -0.0372299 -6.20248e-11 0 -3.48568e-12 3.96642e-08 4.85469e-09
1205 9 0.001 0.0175292 0 -0.0365937 -1.66934e-10 0 7.49023e-12 2.71992e-08 4.82979e-09
1354 10 0.001 0.0225053 0 -0.0372297 -9.81917e-11 0 3.81505e-13 1.98023e-09 4.37061e-09
1355 10 0.001 0.0225094 0 -0.0365933 -2.17195e-10 0 -4.11639e-13 6.86458e-10 4.36815e-09
6 1 0.001 -0.0220449 0 -0.0360125 -4.28073e-10 0 8.08543e-11 4.85357e-06 2.15931e-08
7 1 0.001 -0.0218225 0 -0.0354178 -6.06635e-10 0 1.46642e-10 4.62376e-06 2.06325e-08
8 1 0.001 -0.0215603 0 -0.0348395 -7.7108e-10 0 2.09442e-10 4.35477e-06 1.95361e-08
156 2 0.001 -0.0170565 0 -0.0360102 6.0807e-10 0 -1.0766e-10 4.49671e-06 2.2216e-08
157 2 0.001 -0.0168405 0 -0.0354132 8.72944e-10 0 -2.04031e-10 4.2454e-06 2.11512e-08
158 2 0.001 -0.016586 0 -0.0348314 1.14421e-09 0 -3.16105e-10 3.95992e-06 1.99734e-08
306 3 0.001 -0.0120807 0 -0.0360057 1.50682e-10 0 -3.17574e-11 3.93678e-06 2.47742e-08
307 3 0.001 -0.0118767 0 -0.0354046 2.50731e-10 0 -6.21577e-11 3.68543e-06 2.3648e-08
308 3 0.001 -0.0116367 0 -0.0348169 3.10028e-10 0 -7.50115e-11 3.40459e-06 2.24208e-08
456 4 0.001 -0.00713358 0 -0.0359985 1.6558e-10 0 -2.83736e-11 3.05083e-06 3.82172e-08
457 4 0.001 -0.00695441 0 -0.0353903 2.41569e-10 0 -6.27402e-11 2.85715e-06 3.71319e-08
458 4 0.001 -0.00674299 0 -0.0347925 3.17646e-10 0 -7.56782e-11 2.63323e-06 3.58967e-08
606 5 0.001 -0.00218766 0 -0.0359855 -5.30936e-12 0 -1.65459e-12 1.942e-06 1.90695e-08
607 5 0.001 -0.00203769 0 -0.0353683 -7.17479e-12 0 -4.8977e-12 1.74803e-06 1.83061e-08
608 5 0.001 -0.00186209 0 -0.0347579 -8.8514e-12 0 -8.60024e-12 1.54887e-06 1.75385e-08
756 6 0.001 0.00272449 0 -0.03597 5.30737e-13 0 -1.00781e-11 8.98315e-07 6.60107e-09
757 6 0.001 0.00283078 0 -0.0353428 1.16168e-11 0 -1.44435e-11 7.81774e-07 6.33199e-09
906 7 0.001 0.00764143 0 -0.0359619 6.06227e-11 0 9.64226e-12 3.24414e-07 4.84954e-09
907 7 0.001 0.00770758 0 -0.035329 1.05271e-10 0 -6.47206e-12 2.717e-07 4.74476e-09
1056 8 0.001 0.0125838 0 -0.0359586 -3.44687e-11 0 -1.71945e-12 9.33847e-08 4.48787e-09
1057 8 0.001 0.0126219 0 -0.0353234 -6.56692e-11 0 1.19134e-12 7.10148e-08 4.44497e-09
1206 9 0.001 0.0175465 0 -0.0359576 -2.38089e-10 0 6.58359e-12 1.70413e-08 4.80955e-09
1207 9 0.001 0.0175662 0 -0.0353216 -3.48802e-10 0 8.97095e-12 9.28878e-09 4.79412e-09
1356 10 0.001 0.0225136 0 -0.0359569 -3.22612e-10 0 3.81915e-12 1.37676e-09 4.36945e-09
1357 10 0.001 0.0225172 0 -0.0353206 -4.7613e-10 0 1.65004e-12 4.04479e-09 4.37451e-09
9 1 0.001 -0.0212604 0 -0.0342797 -9.57526e-10 0 3.09622e-10 4.05308e-06 1.8342e-08
10 1 0.001 -0.0209256 0 -0.0337399 -1.13141e-09 0 4.05952e-10 3.72568e-06 1.70889e-08
11 1 0.001 -0.0205584 0 -0.0332216 -1.28747e-09 0 5.12315e-10 3.37986e-06 1.58135e-08
159 2 0.001 -0.0162955 0 -0.0342667 1.43579e-09 0 -4.66083e-10 3.6471e-06 1.87217e-08
160 2 0.001 -0.0159714 0 -0.0337205 1.72152e-09 0 -6.30402e-10 3.31415e-06 1.74339e-08
309 3 0.001 -0.0113628 0 -0.0342442 4.11352e-10 0 -1.39321e-10 3.10114e-06 2.11316e-08
310 3 0.001 -0.0110575 0 -0.0336874 4.86589e-10 0 -1.81289e-10 2.78227e-06 1.9818e-08
459 4 0.001 -0.00650116 0 -0.0342063 3.73686e-10 0 -1.13245e-10 2.3856e-06 3.45551e-08
460 4 0.001 -0.00623099 0 -0.0336324 4.53834e-10 0 -1.39485e-10 2.12131e-06 3.31515e-08
609 5 0.001 -0.00166263 0 -0.0341549 6.14663e-12 0 -5.28857e-12 1.34855e-06 1.67831e-08
610 5 0.001 -0.00144119 0 -0.0335595 4.13897e-12 0 -1.12679e-11 1.15099e-06 1.60543e-08
758 6 0.001 0.00295452 0 -0.0347188 -2.22247e-12 0 -8.84547e-12 6.69371e-07 6.07778e-09
759 6 0.001 0.00309432 0 -0.0340982 8.35648e-12 0 -1.72525e-11 5.62421e-07 5.84073e-09
760 6 0.001 0.00324874 0 -0.033481 7.53958e-12 0 -2.10923e-11 4.62138e-07 5.62274e-09
908 7 0.001 0.00778412 0 -0.0346973 1.26366e-10 0 -1.50052e-12 2.22517e-07 4.64802e-09
909 7 0.001 0.00787002 0 -0.0340668 1.68303e-10 0 -8.59295e-12 1.77346e-07 4.56006e-09
910 7 0.001 0.00796427 0 -0.0334374 2.05554e-10 0 -9.06778e-12 1.36623e-07 4.48148e-09
1058 8 0.001 0.0126654 0 -0.0346885 -9.32814e-11 0 5.15951e-12 5.14716e-08 4.40766e-09
1059 8 0.001 0.0127133 0 -0.034054 -1.17624e-10 0 2.00156e-14 3.49372e-08 4.37621e-09
1060 8 0.001 0.0127649 0 -0.0334197 -1.6017e-10 0 1.00403e-11 2.1565e-08 4.35086e-09
1208 9 0.001 0.0175878 0 -0.0346857 -4.49041e-10 0 1.51536e-11 4.01654e-09 4.78365e-09
1209 9 0.001 0.0176106 0 -0.0340498 -5.73638e-10 0 2.28035e-11 1.27538e-09 4.7782e-09
1210 9 0.001 0.0176337 0 -0.0334139 -6.9013e-10 0 1.58874e-11 1.09169e-09 4.77783e-09
1358 10 0.001 0.0225197 0 -0.0346842 -6.41397e-10 0 6.65584e-12 8.66598e-09 4.38328e-09
1359 10 0.001 0.0225204 0 -0.0340478 -7.97085e-10 0 2.60322e-12 1.51977e-08 4.39569e-09
1360 10 0.001 0.0225186 0 -0.0334114 -9.84991e-10 0 2.56773e-12 2.35798e-08 4.41165e-09
12 1 0.001 -0.0201617 0 -0.0327253 -1.44109e-09 0 6.33353e-10 3.02301e-06 1.45493e-08
13 1 0.001 -0.0197382 0 -0.0322515 -1.55238e-09 0 7.28619e-10 2.66236e-06 1.33253e-08
14 1 0.001 -0.0192909 0 -0.0318 -1.68681e-09 0 8.4235e-10 2.30483e-06 1.21649e-08
161 2 0.001 -0.0156164 0 -0.0331937 2.0023e-09 0 -8.16581e-10 2.96841e-06 1.61454e-08
162 2 0.001 -0.0152332 0 -0.032687 2.28313e-09 0 -1.0224e-09 2.61719e-06 1.48871e-08
163 2 0.001 -0.0148246 0 -0.0322004 2.53535e-09 0 -1.22793e-09 2.26752e-06 1.36851e-08
164 2 0.001 -0.0143932 0 -0.0317337 2.7633e-09 0 -1.43734e-09 1.92608e-06 1.25603e-08
311 3 0.001 -0.0107232 0 -0.0331475 5.80062e-10 0 -2.40885e-10 2.45523e-06 1.85147e-08
312 3 0.001 -0.0103626 0 -0.0326246 6.66779e-10 0 -2.88672e-10 2.12716e-06 1.72518e-08
313 3 0.001 -0.00997823 0 -0.0321189 7.2982e-10 0 -3.72182e-10 1.80488e-06 1.60547e-08
461 4 0.001 -0.00593468 0 -0.0330716 5.19023e-10 0 -1.89073e-10 1.84766e-06 3.17289e-08
462 4 0.001 -0.00561455 0 -0.0325239 5.63798e-10 0 -2.0308e-10 1.57204e-06 3.03276e-08
463 4 0.001 -0.00527297 0 -0.0319893 6.15787e-10 0 -2.4486e-10 1.30163e-06 2.89836e-08
611 5 0.001 -0.00119972 0 -0.0329718 2.23043e-11 0 -2.08223e-11 9.59957e-07 1.5365e-08
612 5 0.001 -0.000940202 0 -0.0323919 3.26641e-11 0 -1.73833e-11 7.78979e-07 1.4726e-08
613 5 0.001 -0.00066466 0 -0.0318194 4.19358e-11 0 -3.3105e-11 6.11302e-07 1.41461e-08
761 6 0.001 0.00341634 0 -0.0328672 1.13498e-13 0 -1.93568e-11 3.69632e-07 5.42534e-09
762 6 0.001 0.00359565 0 -0.0322568 1.5377e-12 0 -2.0284e-11 2.85899e-07 5.24969e-09
911 7 0.001 0.0080658 0 -0.0328092 2.49582e-10 0 -2.26796e-11 1.00736e-07 4.41279e-09
912 7 0.001 0.00817358 0 -0.032182 2.72113e-10 0 -2.40762e-11 7.00225e-08 4.35443e-09
1061 8 0.001 0.0128194 0 -0.0327856 -1.90093e-10 0 6.62866e-12 1.14783e-08 4.33178e-09
1062 8 0.001 0.012876 0 -0.0321518 -2.2824e-10 0 1.26093e-11 4.76972e-09 4.31912e-09
1211 9 0.001 0.0176566 0 -0.0327779 -7.98535e-10 0 2.94032e-11 3.46724e-09 4.78254e-09
1212 9 0.001 0.0176784 0 -0.032142 -9.2332e-10 0 3.17375e-11 8.37915e-09 4.79229e-09
1361 10 0.001 0.0225138 0 -0.0327751 -1.16112e-09 0 4.45433e-12 3.37345e-08 4.43102e-09
1362 10 0.001 0.0225054 0 -0.0321388 -1.3377e-09 0 -9.91873e-12 4.55677e-08 4.45364e-09
15 1 0.001 -0.0188225 0 -0.0313705 -1.76398e-09 0 9.23246e-10 1.95693e-06 1.10866e-08
16 1 0.001 -0.0183355 0 -0.0309619 -1.84869e-09 0 1.00896e-09 1.62461e-06 1.01034e-08
17 1 0.001 -0.0178324 0 -0.0305731 -1.88439e-09 0 1.06706e-09 1.31325e-06 9.22348e-09
18 1 0.001 -0.0173155 0 -0.0302027 -1.93351e-09 0 1.10826e-09 1.02757e-06 8.45142e-09
165 2 0.001 -0.0139418 0 -0.0312862 2.97219e-09 0 -1.64649e-09 1.59901e-06 1.1528e-08
166 2 0.001 -0.0134729 0 -0.030857 3.14816e-09 0 -1.83275e-09 1.29189e-06 1.0599e-08
167 2 0.001 -0.0129889 0 -0.0304448 3.31336e-09 0 -2.0204e-09 1.00967e-06 9.77976e-09
314 3 0.001 -0.00957275 0 -0.0316298 8.16404e-10 0 -4.24168e-10 1.49482e-06 1.49437e-08
315 3 0.001 -0.00914869 0 -0.0311566 8.61073e-10 0 -4.8774e-10 1.20286e-06 1.39339e-08
316 3 0.001 -0.00870851 0 -0.0306983 9.30721e-10 0 -5.45286e-10 9.34278e-07 1.30362e-08
317 3 0.001 -0.00825458 0 -0.0302535 9.72988e-10 0 -5.93464e-10 6.93712e-07 1.22574e-08
464 4 0.001 -0.00491236 0 -0.0314672 6.41562e-10 0 -2.59521e-10 1.04328e-06 2.77281e-08
465 4 0.001 -0.00453511 0 -0.0309569 6.66299e-10 0 -2.76782e-10 8.03344e-07 2.65869e-08
466 4 0.001 -0.00414361 0 -0.0304574 6.76665e-10 0 -2.96278e-10 5.87527e-07 2.5581e-08
614 5 0.001 -0.000375118 0 -0.0312537 6.59761e-11 0 -3.72795e-11 4.59846e-07 1.36322e-08
615 5 0.001 -7.36001e-05 0 -0.0306943 5.80905e-11 0 -3.93213e-11 3.27178e-07 1.31899e-08
763 6 0.001 0.00378518 0 -0.0316494 -9.48135e-12 0 -2.67569e-11 2.11821e-07 5.09671e-09
764 6 0.001 0.00398345 0 -0.0310448 -1.3852e-11 0 -2.69566e-11 1.48157e-07 4.96704e-09
765 6 0.001 0.00418896 0 -0.0304426 -1.88916e-11 0 -2.13968e-11 9.55499e-08 4.86115e-09
913 7 0.001 0.00828652 0 -0.0315558 3.29024e-10 0 -3.61395e-11 4.47687e-08 4.30673e-09
914 7 0.001 0.00840355 0 -0.0309302 3.57007e-10 0 -4.23935e-11 2.52075e-08 4.26997e-09
915 7 0.001 0.00852359 0 -0.0303053 3.98745e-10 0 -5.67663e-11 1.15181e-08 4.24433e-09
1063 8 0.001 0.0129337 0 -0.031518 -2.60867e-10 0 4.0852e-12 1.50086e-09 4.31295e-09
1064 8 0.001 0.0129918 0 -0.0308843 -2.97651e-10 0 2.40021e-11 1.70161e-09 4.31332e-09
1065 8 0.001 0.0130494 0 -0.0302505 -3.23563e-10 0 8.41121e-12 5.37012e-09 4.32023e-09
1213 9 0.001 0.0176984 0 -0.031506 -1.02423e-09 0 3.75035e-11 1.57801e-08 4.807e-09
1214 9 0.001 0.0177161 0 -0.0308699 -1.12822e-09 0 2.89796e-11 2.55986e-08 4.82655e-09
1215 9 0.001 0.0177305 0 -0.0302338 -1.22635e-09 0 4.56493e-11 3.77397e-08 4.85079e-09
1363 10 0.001 0.0224927 0 -0.0315025 -1.5065e-09 0 -9.92895e-13 5.89692e-08 4.47934e-09
1364 10 0.001 0.0224751 0 -0.0308664 -1.68714e-09 0 -1.11522e-11 7.38135e-08 4.50789e-09
1365 10 0.001 0.0224521 0 -0.0302305 -1.82972e-09 0 -1.52368e-11 8.99613e-08 4.53904e-09
19 1 0.001 -0.0167871 0 -0.0298489 -1.96808e-09 0 1.14168e-09 7.71658e-07 7.78842e-09
20 1 0.001 -0.0162491 0 -0.0295097 -1.97068e-09 0 1.14636e-09 5.48972e-07 7.23351e-09
21 1 0.001 -0.0157033 0 -0.0291831 -1.99087e-09 0 1.15776e-09 3.62364e-07 6.78426e-09
22 1 0.001 -0.0151515 0 -0.0288666 -1.98646e-09 0 1.12938e-09 2.14111e-07 6.43759e-09
168 2 0.001 -0.0124921 0 -0.0300481 3.44425e-09 0 -2.19395e-09 7.56656e-07 9.07325e-09
169 2 0.001 -0.0119846 0 -0.029665 3.57191e-09 0 -2.36111e-09 5.36508e-07 8.48003e-09
170 2 0.001 -0.0114684 0 -0.0292935 3.65911e-09 0 -2.48345e-09 3.52254e-07 7.99892e-09
171 2 0.001 -0.0109455 0 -0.0289316 3.76067e-09 0 -2.62573e-09 2.06322e-07 7.62782e-09
318 3 0.001 -0.00778915 0 -0.0298206 1.01383e-09 0 -6.51978e-10 4.85134e-07 1.16017e-08
319 3 0.001 -0.00731439 0 -0.0293979 1.03656e-09 0 -6.79996e-10 3.11854e-07 1.10705e-08
320 3 0.001 -0.00683238 0 -0.0289835 1.06727e-09 0 -7.25747e-10 1.7652e-07 1.06644e-08
467 4 0.001 -0.00374021 0 -0.0299674 6.64424e-10 0 -2.77973e-10 4.00833e-07 2.47264e-08
468 4 0.001 -0.0033272 0 -0.0294854 6.70515e-10 0 -2.9324e-10 2.47473e-07 2.40353e-08
469 4 0.001 -0.00290685 0 -0.0290098 6.46165e-10 0 -2.7773e-10 1.30834e-07 2.35162e-08
616 5 0.001 0.000237875 0 -0.0301404 7.21472e-11 0 -5.31859e-11 2.15491e-07 1.28233e-08
617 5 0.001 0.000557301 0 -0.029591 6.45219e-11 0 -4.85887e-11 1.26591e-07 1.25351e-08
618 5 0.001 0.000882688 0 -0.029045 6.59485e-11 0 -5.44679e-11 6.18894e-08 1.23274e-08
766 6 0.001 0.00440022 0 -0.0298423 -3.02846e-11 0 -3.84087e-11 5.45207e-08 4.77936e-09
767 6 0.001 0.00461574 0 -0.0292436 -2.52639e-11 0 -3.25232e-11 2.54699e-08 4.72186e-09
916 7 0.001 0.00864556 0 -0.0296807 4.41535e-10 0 -6.35959e-11 3.82505e-09 4.22996e-09
917 7 0.001 0.00876836 0 -0.0290562 4.63746e-10 0 -6.66367e-11 2.19837e-09 4.22692e-09
1066 8 0.001 0.0131058 0 -0.0296166 -3.55178e-10 0 2.09886e-11 1.24728e-08 4.33364e-09
1067 8 0.001 0.01316 0 -0.0289825 -3.73039e-10 0 1.71333e-11 2.29446e-08 4.35344e-09
1216 9 0.001 0.0177411 0 -0.0295975 -1.31481e-09 0 3.12941e-11 5.20855e-08 4.8795e-09
1217 9 0.001 0.0177471 0 -0.0289613 -1.36807e-09 0 3.78016e-11 6.8496e-08 4.91245e-09
1366 10 0.001 0.0224231 0 -0.0295948 -1.98602e-09 0 -2.26628e-11 1.0726e-07 4.57254e-09
1367 10 0.001 0.0223875 0 -0.0289594 -2.10316e-09 0 -3.44935e-11 1.25546e-07 4.60809e-09
23 1 0.001 -0.0145952 0 -0.028558 -1.97712e-09 0 1.11781e-09 1.0595e-07 6.19039e-09
24 1 0.001 -0.014036 0 -0.0282547 -1.96469e-09 0 1.07263e-09 3.91049e-08 6.04004e-09
25 1 0.001 -0.0134753 0 -0.0279542 -1.93875e-09 0 1.01588e-09 1.43163e-08 5.98474e-09
26 1 0.001 -0.0129144 0 -0.0276539 -1.91715e-09 0 9.67206e-10 3.18553e-08 6.02384e-09
27 1 0.001 -0.0123549 0 -0.0273513 -1.87146e-09 0 8.75923e-10 9.15301e-08 6.1578e-09
172 2 0.001 -0.0104175 0 -0.0285769 3.81674e-09 0 -2.72127e-09 1.00561e-07 7.36437e-09
173 2 0.001 -0.00988627 0 -0.0282272 3.86628e-09 0 -2.80074e-09 3.62728e-08 7.20628e-09
174 2 0.001 -0.00935339 0 -0.0278799 3.90895e-09 0 -2.87907e-09 1.42172e-08 7.15087e-09
175 2 0.001 -0.00882047 0 -0.0275327 3.92754e-09 0 -2.89689e-09 3.45885e-08 7.19963e-09
321 3 0.001 -0.00634511 0 -0.0285752 1.08343e-09 0 -7.51859e-10 8.11412e-08 1.03827e-08
322 3 0.001 -0.00585449 0 -0.0281709 1.09757e-09 0 -7.73814e-10 2.71009e-08 1.02247e-08
323 3 0.001 -0.00536241 0 -0.0277684 1.10108e-09 0 -7.94276e-10 1.51706e-08 1.019e-08
324 3 0.001 -0.00487074 0 -0.0273654 1.09436e-09 0 -7.97841e-10 4.55196e-08 1.02784e-08
470 4 0.001 -0.00248135 0 -0.0285387 6.27482e-10 0 -2.54937e-10 5.34453e-08 2.3175e-08
471 4 0.001 -0.00205288 0 -0.0280703 6.08556e-10 0 -2.45136e-10 1.69617e-08 2.30149e-08
472 4 0.001 -0.00162361 0 -0.0276026 5.8051e-10 0 -2.14713e-10 2.21581e-08 2.30377e-08
619 5 0.001 0.00121206 0 -0.0285015 4.2439e-11 0 -3.91497e-11 2.23986e-08 1.22015e-08
620 5 0.001 0.00154344 0 -0.0279591 2.58465e-11 0 -4.08358e-11 8.73071e-09 1.21581e-08
621 5 0.001 0.00187487 0 -0.0274168 2.55794e-11 0 -3.74957e-11 2.10965e-08 1.21973e-08
768 6 0.001 0.00483402 0 -0.0286459 -6.24254e-11 0 -2.93973e-11 8.67822e-09 4.68878e-09
769 6 0.001 0.00505357 0 -0.0280486 -5.15096e-11 0 -3.50802e-11 4.30675e-09 4.68019e-09
770 6 0.001 0.00527289 0 -0.0274513 -8.92837e-11 0 -2.80025e-11 1.23973e-08 4.69609e-09
918 7 0.001 0.00889091 0 -0.0284317 5.08382e-10 0 -7.9266e-11 6.65277e-09 4.23523e-09
919 7 0.001 0.00901211 0 -0.027807 5.34831e-10 0 -8.78754e-11 1.71478e-08 4.25485e-09
920 7 0.001 0.00913089 0 -0.0271818 5.5217e-10 0 -8.30321e-11 3.35882e-08 4.28567e-09
1068 8 0.001 0.0132112 0 -0.0283482 -3.93977e-10 0 1.4165e-11 3.66892e-08 4.37949e-09
1069 8 0.001 0.0132587 0 -0.0277136 -3.89936e-10 0 1.9459e-11 5.35797e-08 4.41162e-09
1218 9 0.001 0.0177479 0 -0.028325 -1.43467e-09 0 3.99938e-11 8.68104e-08 4.94935e-09
1219 9 0.001 0.0177429 0 -0.0276887 -1.45571e-09 0 3.61506e-11 1.06849e-07 4.98989e-09
1368 10 0.001 0.0223448 0 -0.0283245 -2.21945e-09 0 -3.47501e-11 1.44644e-07 4.64536e-09
1369 10 0.001 0.0222945 0 -0.0276902 -2.30852e-09 0 -4.50357e-11 1.64371e-07 4.68401e-09
28 1 0.001 -0.011798 0 -0.0270437 -1.8334e-09 0 8.04215e-10 1.92682e-07 6.38823e-09
29 1 0.001 -0.0112453 0 -0.0267288 -1.78639e-09 0 6.96182e-10 3.3417e-07 6.71762e-09
30 1 0.001 -0.0106984 0 -0.0264041 -1.73814e-09 0 6.33059e-10 5.14365e-07 7.14908e-09
31 1 0.001 -0.0101589 0 -0.0260672 -1.68318e-09 0 5.15958e-10 7.3125e-07 7.68605e-09
176 2 0.001 -0.00828914 0 -0.0271831 3.93447e-09 0 -2.9229e-09 9.70476e-08 7.35463e-09
32 1 0.001 -0.00962871 0 -0.025716 -1.65327e-09 0 4.73929e-10 9.82255e-07 8.33189e-09
177 2 0.001 -0.00776103 0 -0.0268287 3.94171e-09 0 -2.92642e-09 2.00772e-07 7.61396e-09
178 2 0.001 -0.00723784 0 -0.0264671 3.91054e-09 0 -2.89177e-09 3.44466e-07 7.97895e-09
179 2 0.001 -0.00672135 0 -0.0260961 3.88932e-09 0 -2.85535e-09 5.26321e-07 8.45311e-09
180 2 0.001 -0.00621342 0 -0.0257136 3.84213e-09 0 -2.80719e-09 7.43948e-07 9.03848e-09
325 3 0.001 -0.00438134 0 -0.0269596 1.09485e-09 0 -7.97433e-10 1.17717e-07 1.04902e-08
326 3 0.001 -0.00389612 0 -0.0265489 1.0757e-09 0 -7.99955e-10 2.30725e-07 1.08261e-08
327 3 0.001 -0.00341703 0 -0.0261311 1.05069e-09 0 -7.6963e-10 3.8289e-07 1.12867e-08
328 3 0.001 -0.00294608 0 -0.0257042 1.01428e-09 0 -7.51294e-10 5.71927e-07 1.18723e-08
473 4 0.001 -0.00119568 0 -0.0271337 5.51671e-10 0 -2.07662e-10 6.89244e-08 2.3243e-08
474 4 0.001 -0.000771259 0 -0.0266616 5.18796e-10 0 -1.74711e-10 1.56266e-07 2.36289e-08
475 4 0.001 -0.000352523 0 -0.0261846 4.93206e-10 0 -1.50851e-10 2.8231e-07 2.41914e-08
476 4 0.001 5.83053e-05 0 -0.0257007 4.53175e-10 0 -1.30923e-10 4.44311e-07 2.4924e-08
622 5 0.001 0.00220439 0 -0.0268733 -1.89228e-11 0 -1.93194e-11 5.93054e-08 1.23191e-08
623 5 0.001 0.00253002 0 -0.0263275 -2.433e-11 0 -1.83479e-11 1.22765e-07 1.25227e-08
624 5 0.001 0.00284979 0 -0.0257783 -6.41388e-11 0 7.0415e-12 2.10484e-07 1.28069e-08
771 6 0.001 0.0054905 0 -0.0268533 -1.05717e-10 0 -1.92153e-11 3.28725e-08 4.73646e-09
772 6 0.001 0.0057049 0 -0.0262542 -1.27014e-10 0 -2.41998e-11 6.55355e-08 4.80122e-09
921 7 0.001 0.00924615 0 -0.0265559 5.88358e-10 0 -9.88616e-11 5.58236e-08 4.32754e-09
922 7 0.001 0.00935682 0 -0.0259292 6.02848e-10 0 -9.42017e-11 8.36499e-08 4.38023e-09
1070 8 0.001 0.0133015 0 -0.0270787 -4.10116e-10 0 7.7521e-12 7.34595e-08 4.44959e-09
1071 8 0.001 0.013339 0 -0.0264434 -3.97652e-10 0 1.68377e-11 9.6143e-08 4.49311e-09
1072 8 0.001 0.0133703 0 -0.0258078 -3.94686e-10 0 7.63324e-12 1.21417e-07 4.54185e-09
1220 9 0.001 0.0177312 0 -0.0270525 -1.49091e-09 0 3.80622e-11 1.28412e-07 5.03369e-09
1222 9 0.001 0.0176858 0 -0.0257807 -1.46337e-09 0 3.55149e-11 1.7524e-07 5.12949e-09
1221 9 0.001 0.0177124 0 -0.0264165 -1.46685e-09 0 3.36117e-11 1.51285e-07 5.08037e-09
1370 10 0.001 0.0222361 0 -0.0270565 -2.37036e-09 0 -4.74393e-11 1.84537e-07 4.72369e-09
1372 10 0.001 0.0220931 0 -0.025792 -2.44971e-09 0 -5.7564e-11 2.25398e-07 4.80461e-09
1371 10 0.001 0.0221691 0 -0.0264237 -2.4301e-09 0 -5.61104e-11 2.04946e-07 4.76402e-09
33 1 0.001 -0.00910973 0 -0.0253486 -1.59447e-09 0 3.808e-10 1.26408e-06 9.08815e-09
34 1 0.001 -0.00860414 0 -0.0249631 -1.5674e-09 0 3.52959e-10 1.57266e-06 9.95369e-09
35 1 0.001 -0.00811422 0 -0.0245579 -1.52567e-09 0 2.99991e-10 1.90324e-06 1.09246e-08
181 2 0.001 -0.00571607 0 -0.0253174 3.77435e-09 0 -2.7134e-09 9.94357e-07 9.73626e-09
182 2 0.001 -0.00523142 0 -0.024906 3.69815e-09 0 -2.63615e-09 1.27394e-06 1.05459e-08
183 2 0.001 -0.00476173 0 -0.0244777 3.57897e-09 0 -2.50737e-09 1.57844e-06 1.14646e-08
329 3 0.001 -0.00248539 0 -0.0252664 9.90693e-10 0 -7.21531e-10 7.94899e-07 1.2582e-08
330 3 0.001 -0.00203717 0 -0.0248158 9.43431e-10 0 -6.98521e-10 1.04821e-06 1.34132e-08
331 3 0.001 -0.00160372 0 -0.0243512 9.0066e-10 0 -6.4904e-10 1.3276e-06 1.43609e-08
477 4 0.001 0.000458961 0 -0.0252085 4.20035e-10 0 -1.01552e-10 6.38676e-07 2.58175e-08
478 4 0.001 0.000847135 0 -0.0247064 3.61066e-10 0 -6.52081e-11 8.6099e-07 2.68587e-08
479 4 0.001 0.00122047 0 -0.0241933 3.11062e-10 0 -4.04585e-11 1.10607e-06 2.80305e-08
625 5 0.001 0.00316171 0 -0.0252246 -8.27137e-11 0 9.20292e-12 3.2107e-07 1.31697e-08
626 5 0.001 0.00346378 0 -0.0246655 -1.15607e-10 0 3.04511e-11 4.52736e-07 1.36082e-08
773 6 0.001 0.00591461 0 -0.0256534 -1.56129e-10 0 -1.33547e-11 1.1007e-07 4.89022e-09
774 6 0.001 0.00611811 0 -0.0250506 -1.61342e-10 0 -1.61383e-11 1.66039e-07 5.00324e-09
775 6 0.001 0.00631392 0 -0.0244451 -1.86389e-10 0 -1.98478e-11 2.32886e-07 5.13992e-09
923 7 0.001 0.00946183 0 -0.0253016 6.0971e-10 0 -1.00783e-10 1.16809e-07 4.44343e-09
924 7 0.001 0.0095601 0 -0.0246728 6.29539e-10 0 -9.53698e-11 1.54991e-07 4.51677e-09
1073 8 0.001 0.0133946 0 -0.0251719 -3.83449e-10 0 1.02962e-11 1.49043e-07 4.59543e-09
1074 8 0.001 0.0134112 0 -0.0245358 -3.54608e-10 0 7.05868e-12 1.78757e-07 4.65341e-09
1224 9 0.001 0.0176068 0 -0.0245107 -1.36943e-09 0 3.6746e-11 2.25412e-07 5.23313e-09
1223 9 0.001 0.0176508 0 -0.0251454 -1.43039e-09 0 3.95979e-11 2.00033e-07 5.18057e-09
1373 10 0.001 0.0220077 0 -0.0251614 -2.45671e-09 0 -5.15199e-11 2.45693e-07 4.84505e-09
1374 10 0.001 0.0219123 0 -0.0245323 -2.44253e-09 0 -5.98099e-11 2.65629e-07 4.88495e-09
36 1 0.001 -0.00764244 0 -0.024132 -1.49558e-09 0 2.65831e-10 2.25054e-06 1.19933e-08
37 1 0.001 -0.0071914 0 -0.0236842 -1.46106e-09 0 2.31594e-10 2.60867e-06 1.31476e-08
38 1 0.001 -0.00676382 0 -0.0232141 -1.44571e-09 0 2.09563e-10 2.97117e-06 1.437e-08
39 1 0.001 -0.00636251 0 -0.0227216 -1.40985e-09 0 1.96904e-10 3.33113e-06 1.56377e-08
184 2 0.001 -0.00430942 0 -0.0240311 3.4631e-09 0 -2.38955e-09 1.90298e-06 1.24859e-08
185 2 0.001 -0.00387701 0 -0.0235654 3.32664e-09 0 -2.2627e-09 2.24203e-06 1.35994e-08
186 2 0.001 -0.00346713 0 -0.0230799 3.15448e-09 0 -2.11298e-09 2.58952e-06 1.479e-08
332 3 0.001 -0.00118746 0 -0.0238712 8.41767e-10 0 -6.26088e-10 1.62814e-06 1.54164e-08
333 3 0.001 -0.000790882 0 -0.0233749 7.82838e-10 0 -5.73108e-10 1.94428e-06 1.65671e-08
334 3 0.001 -0.000416555 0 -0.0228617 7.28441e-10 0 -5.39183e-10 2.2699e-06 1.77956e-08
480 4 0.001 0.00157657 0 -0.0236682 2.56751e-10 0 2.53584e-12 1.36803e-06 2.93106e-08
481 4 0.001 0.00191304 0 -0.0231303 1.89157e-10 0 3.60455e-11 1.64039e-06 3.06719e-08
627 5 0.001 0.00375397 0 -0.0241002 -1.45937e-10 0 3.32588e-11 6.03309e-07 1.41186e-08
628 5 0.001 0.00403026 0 -0.023528 -1.81579e-10 0 5.05379e-11 7.70241e-07 1.46954e-08
629 5 0.001 0.00429062 0 -0.0229485 -2.0437e-10 0 6.1538e-11 9.50627e-07 1.53316e-08
776 6 0.001 0.00650056 0 -0.0238369 -2.0217e-10 0 -1.00948e-11 3.09933e-07 5.29974e-09
777 6 0.001 0.00667652 0 -0.0232254 -2.17711e-10 0 -1.88465e-11 3.96384e-07 5.48198e-09
925 7 0.001 0.0096506 0 -0.024043 6.33242e-10 0 -1.03346e-10 1.97835e-07 4.59978e-09
926 7 0.001 0.00973227 0 -0.0234119 6.33994e-10 0 -9.64841e-11 2.44931e-07 4.6919e-09
927 7 0.001 0.0098041 0 -0.0227796 6.38225e-10 0 -9.9824e-11 2.9582e-07 4.79246e-09
1075 8 0.001 0.0134193 0 -0.0238995 -3.45586e-10 0 6.25311e-12 2.10273e-07 4.7153e-09
1076 8 0.001 0.0134182 0 -0.0232632 -2.97143e-10 0 5.68433e-12 2.43284e-07 4.78057e-09
1077 8 0.001 0.0134072 0 -0.022627 -2.70056e-10 0 9.76053e-13 2.77467e-07 4.84862e-09
1226 9 0.001 0.0174898 0 -0.0232436 -1.23516e-09 0 4.70369e-11 2.76886e-07 5.34053e-09
1227 9 0.001 0.0174158 0 -0.0226117 -1.12357e-09 0 6.17643e-11 3.02447e-07 5.39427e-09
1225 9 0.001 0.0175533 0 -0.0238767 -1.30937e-09 0 4.49668e-11 2.51119e-07 5.28663e-09
1375 10 0.001 0.0218068 0 -0.0239048 -2.41229e-09 0 -4.26372e-11 2.85007e-07 4.92389e-09
1376 10 0.001 0.0216907 0 -0.0232792 -2.3477e-09 0 -3.5697e-11 3.03635e-07 4.96146e-09
1377 10 0.001 0.0215637 0 -0.0226557 -2.28006e-09 0 -2.30555e-11 3.21325e-07 4.99727e-09
40 1 0.001 -0.00599029 0 -0.0222068 -1.38933e-09 0 1.6969e-10 3.6813e-06 1.69224e-08
41 1 0.001 -0.00564999 0 -0.0216705 -1.36979e-09 0 1.64676e-10 4.01428e-06 1.81911e-08
187 2 0.001 -0.00308249 0 -0.0225742 2.97436e-09 0 -1.98929e-09 2.93885e-06 1.60374e-08
188 2 0.001 -0.00272581 0 -0.0220486 2.78871e-09 0 -1.86132e-09 3.28304e-06 1.73158e-08
189 2 0.001 -0.00239984 0 -0.0215035 2.53563e-09 0 -1.71835e-09 3.61486e-06 1.85947e-08
335 3 0.001 -6.70907e-05 0 -0.0223314 6.43183e-10 0 -5.00326e-10 2.59839e-06 1.90796e-08
336 3 0.001 0.000254898 0 -0.021784 5.90812e-10 0 -4.5708e-10 2.92276e-06 2.03913e-08
337 3 0.001 0.000546836 0 -0.0212202 4.99214e-10 0 -4.30398e-10 3.23579e-06 2.16987e-08
482 4 0.001 0.00222747 0 -0.0225794 1.10927e-10 0 7.67822e-11 1.91621e-06 3.20821e-08
483 4 0.001 0.00251749 0 -0.0220153 2.5061e-11 0 1.12618e-10 2.18822e-06 3.35038e-08
484 4 0.001 0.00278081 0 -0.0214383 -3.93562e-11 0 1.44625e-10 2.44923e-06 3.48993e-08
630 5 0.001 0.00453305 0 -0.0223612 -2.43677e-10 0 7.31506e-11 1.14111e-06 1.60161e-08
631 5 0.001 0.00475554 0 -0.0217662 -2.93119e-10 0 8.84895e-11 1.33784e-06 1.67325e-08
632 5 0.001 0.00495615 0 -0.0211635 -3.0654e-10 0 9.05613e-11 1.53631e-06 1.74708e-08
778 6 0.001 0.00684034 0 -0.0226107 -2.34202e-10 0 -1.56025e-11 4.91322e-07 5.68566e-09
779 6 0.001 0.00699055 0 -0.0219925 -2.46876e-10 0 -1.80773e-11 5.93718e-07 5.9095e-09
780 6 0.001 0.0071257 0 -0.0213708 -2.75741e-10 0 -1.86798e-11 7.02429e-07 6.15188e-09
928 7 0.001 0.00986508 0 -0.0221462 6.34882e-10 0 -9.4233e-11 3.50001e-07 4.90071e-09
929 7 0.001 0.00991424 0 -0.0215118 6.24878e-10 0 -9.49963e-11 4.06933e-07 5.01575e-09
1078 8 0.001 0.0133856 0 -0.021991 -2.19215e-10 0 9.30614e-12 3.12484e-07 4.91884e-09
1079 8 0.001 0.0133528 0 -0.0213556 -1.71095e-10 0 6.29998e-12 3.47982e-07 4.99054e-09
1228 9 0.001 0.0173309 0 -0.0219811 -1.0455e-09 0 7.33466e-11 3.27533e-07 5.44727e-09
1229 9 0.001 0.0172345 0 -0.0213522 -9.00574e-10 0 8.70399e-11 3.5188e-07 5.49896e-09
1378 10 0.001 0.0214256 0 -0.0220345 -2.17274e-09 0 2.08965e-13 3.37896e-07 5.03094e-09
1379 10 0.001 0.0212761 0 -0.0214161 -2.0625e-09 0 3.60127e-11 3.53182e-07 5.06209e-09
42 1 0.001 -0.00534435 0 -0.0211138 -1.3212e-09 0 1.28673e-10 4.32267e-06 1.94071e-08
43 1 0.001 -0.00507596 0 -0.0205383 -1.30443e-09 0 1.38486e-10 4.59936e-06 2.05317e-08
44 1 0.001 -0.00484719 0 -0.019946 -1.25439e-09 0 1.12001e-10 4.83771e-06 2.1526e-08
190 2 0.001 -0.00210722 0 -0.0209398 2.31924e-09 0 -1.62449e-09 3.92701e-06 1.98396e-08
191 2 0.001 -0.00185048 0 -0.0203591 2.056e-09 0 -1.49681e-09 4.21234e-06 2.10128e-08
192 2 0.001 -0.00163195 0 -0.019763 1.76781e-09 0 -1.39409e-09 4.46404e-06 2.20758e-08
338 3 0.001 0.000806238 0 -0.0206407 4.37698e-10 0 -3.90329e-10 3.53025e-06 2.29656e-08
339 3 0.001 0.00103077 0 -0.020047 3.56232e-10 0 -3.77472e-10 3.79906e-06 2.41536e-08
485 4 0.001 0.00301525 0 -0.0208491 -1.41832e-10 0 1.71298e-10 2.69285e-06 3.62223e-08
486 4 0.001 0.00321881 0 -0.0202486 -2.01489e-10 0 1.99795e-10 2.91383e-06 3.74308e-08
633 5 0.001 0.00513301 0 -0.0205535 -3.59742e-10 0 1.06565e-10 1.73141e-06 1.8222e-08
634 5 0.001 0.00528435 0 -0.0199367 -3.85242e-10 0 1.16737e-10 1.91771e-06 1.89642e-08
781 6 0.001 0.00724437 0 -0.0207458 -2.78505e-10 0 -1.73592e-11 8.1621e-07 6.41079e-09
782 6 0.001 0.00734519 0 -0.0201178 -3.04525e-10 0 -1.85311e-11 9.33719e-07 6.68378e-09
930 7 0.001 0.00995063 0 -0.0208766 6.11798e-10 0 -9.34956e-11 4.66034e-07 5.13659e-09