ITEM: TIMESTEP
9400000
ITEM: NUMBER OF ATOMS
1500
ITEM: BOX BOUNDS ff ff ff
-2.5000000000000001e-02 2.5000000000000001e-02
-5.0000000000000001e-03 5.0000000000000001e-03
-5.0000000000000003e-02 5.0000000000000003e-02
ITEM: ATOMS id type radius x y z fx fy fz c_bendingE c_stretchingE
1 1 0.001 -0.0224999 0 -0.0475 2.7719e-25 0 -5.03948e-13 0 1.05211e-29
151 2 0.001 -0.0174999 0 -0.0475 2.7719e-25 0 -5.03948e-13 0 1.05211e-29
301 3 0.001 -0.0125001 0 -0.0475 -2.7719e-25 0 -5.03948e-13 0 1.05211e-29
451 4 0.001 -0.0075001 0 -0.0475 -2.7719e-25 0 -5.03948e-13 0 1.05211e-29
601 5 0.001 -0.0025001 0 -0.0475 -2.7719e-25 0 -5.03948e-13 0 1.05211e-29
751 6 0.001 0.0025001 0 -0.0475 2.7719e-25 0 -5.03948e-13 0 1.05211e-29
901 7 0.001 0.0074999 0 -0.0475 -2.7719e-25 0 -5.03948e-13 0 1.05211e-29
1051 8 0.001 0.0125001 0 -0.0475 2.7719e-25 0 -5.03948e-13 0 1.05211e-29
1201 9 0.001 0.0174999 0 -0.0475 -2.7719e-25 0 -5.03948e-13 0 1.05211e-29
1351 10 0.001 0.0224999 0 -0.0475 -2.7719e-25 0 -5.03948e-13 0 1.05211e-29
2 1 0.001 -0.0224999 0 -0.0468624 2.7719e-25 0 2.08882e-13 0 1.41212e-29
3 1 0.001 -0.0224999 0 -0.0462248 2.7719e-25 0 -2.17166e-12 0 2.5636e-28
4 1 0.001 -0.0224999 0 -0.0455872 2.7719e-25 0 8.10726e-12 0 1.57308e-27
152 2 0.001 -0.0174999 0 -0.0468624 2.7719e-25 0 2.08882e-13 0 1.41212e-29
153 2 0.001 -0.0174999 0 -0.0462248 2.7719e-25 0 -2.17166e-12 0 2.5636e-28
154 2 0.001 -0.0174999 0 -0.0455872 2.7719e-25 0 8.10726e-12 0 1.57308e-27
302 3 0.001 -0.0125001 0 -0.0468624 -2.7719e-25 0 2.08882e-13 0 1.41212e-29
303 3 0.001 -0.0125001 0 -0.0462248 -2.7719e-25 0 -2.17166e-12 0 2.5636e-28
304 3 0.001 -0.0125001 0 -0.0455872 -2.7719e-25 0 8.10726e-12 0 1.57308e-27
452 4 0.001 -0.0075001 0 -0.0468624 -2.7719e-25 0 2.08882e-13 0 1.41212e-29
453 4 0.001 -0.0075001 0 -0.0462248 -2.7719e-25 0 -2.17166e-12 0 2.5636e-28
454 4 0.001 -0.0075001 0 -0.0455872 -2.7719e-25 0 8.10726e-12 0 1.57308e-27
602 5 0.001 -0.0025001 0 -0.0468624 -2.7719e-25 0 2.08882e-13 0 1.41212e-29
603 5 0.001 -0.0025001 0 -0.0462248 -2.7719e-25 0 -2.17166e-12 0 2.5636e-28
604 5 0.001 -0.0025001 0 -0.0455872 -2.7719e-25 0 8.10726e-12 0 1.57308e-27
752 6 0.001 0.0025001 0 -0.0468624 2.7719e-25 0 2.08882e-13 0 1.41212e-29
753 6 0.001 0.0025001 0 -0.0462248 2.7719e-25 0 -2.17166e-12 0 2.5636e-28
754 6 0.001 0.0025001 0 -0.0455872 2.7719e-25 0 8.10726e-12 0 1.57308e-27
902 7 0.001 0.0074999 0 -0.0468624 -2.7719e-25 0 2.08882e-13 0 1.41212e-29
903 7 0.001 0.0074999 0 -0.0462248 -2.7719e-25 0 -2.17166e-12 0 2.5636e-28
904 7 0.001 0.0074999 0 -0.0455872 -2.7719e-25 0 8.10726e-12 0 1.57308e-27
1052 8 0.001 0.0125001 0 -0.0468624 2.7719e-25 0 2.08882e-13 0 1.41212e-29
1053 8 0.001 0.0125001 0 -0.0462248 2.7719e-25 0 -2.17166e-12 0 2.5636e-28
1054 8 0.001 0.0125001 0 -0.0455872 2.7719e-25 0 8.10726e-12 0 1.57308e-27
1202 9 0.001 0.0174999 0 -0.0468624 -2.7719e-25 0 2.08882e-13 0 1.41212e-29
1203 9 0.001 0.0174999 0 -0.0462248 -2.7719e-25 0 -2.17166e-12 0 2.5636e-28
1204 9 0.001 0.0174999 0 -0.0455872 -2.7719e-25 0 8.10726e-12 0 1.57308e-27
1352 10 0.001 0.0224999 0 -0.0468624 -2.7719e-25 0 2.08882e-13 0 1.41212e-29
1353 10 0.001 0.0224999 0 -0.0462248 -2.7719e-25 0 -2.17166e-12 0 2.5636e-28
1354 10 0.001 0.0224999 0 -0.0455872 -2.7719e-25 0 8.10726e-12 0 1.57308e-27
5 1 0.001 -0.0224999 0 -0.0449497 2.7719e-25 0 -9.94656e-12 0 2.09013e-27
6 1 0.001 -0.0224999 0 -0.0443121 2.7719e-25 0 4.30319e-12 0 7.69811e-28
155 2 0.001 -0.0174999 0 -0.0449497 2.7719e-25 0 -9.94656e-12 0 2.09013e-27
156 2 0.001 -0.0174999 0 -0.0443121 2.7719e-25 0 4.30319e-12 0 7.69811e-28
305 3 0.001 -0.0125001 0 -0.0449497 -2.7719e-25 0 -9.94656e-12 0 2.09013e-27
306 3 0.001 -0.0125001 0 -0.0443121 -2.7719e-25 0 4.30319e-12 0 7.69811e-28
455 4 0.001 -0.0075001 0 -0.0449497 -2.7719e-25 0 -9.94656e-12 0 2.09013e-27
456 4 0.001 -0.0075001 0 -0.0443121 -2.7719e-25 0 4.30319e-12 0 7.69811e-28
605 5 0.001 -0.0025001 0 -0.0449497 -2.7719e-25 0 -9.94656e-12 0 2.09013e-27
606 5 0.001 -0.0025001 0 -0.0443121 -2.7719e-25 0 4.30319e-12 0 7.69811e-28
755 6 0.001 0.0025001 0 -0.0449497 2.7719e-25 0 -9.94656e-12 0 2.09013e-27
756 6 0.001 0.0025001 0 -0.0443121 2.7719e-25 0 4.30319e-12 0 7.69811e-28
905 7 0.001 0.0074999 0 -0.0449497 -2.7719e-25 0 -9.94656e-12 0 2.09013e-27
906 7 0.001 0.0074999 0 -0.0443121 -2.7719e-25 0 4.30319e-12 0 7.69811e-28
1055 8 0.001 0.0125001 0 -0.0449497 2.7719e-25 0 -9.94656e-12 0 2.09013e-27
1056 8 0.001 0.0125001 0 -0.0443121 2.7719e-25 0 4.30319e-12 0 7.69811e-28
1205 9 0.001 0.0174999 0 -0.0449497 -2.7719e-25 0 -9.94656e-12 0 2.09013e-27
1206 9 0.001 0.0174999 0 -0.0443121 -2.7719e-25 0 4.30319e-12 0 7.69811e-28
1355 10 0.001 0.0224999 0 -0.0449497 -2.7719e-25 0 -9.94656e-12 0 2.09013e-27
1356 10 0.001 0.0224999 0 -0.0443121 -2.7719e-25 0 4.30319e-12 0 7.69811e-28
7 1 0.001 -0.0224999 0 -0.0436745 2.7719e-25 0 2.29944e-12 0 2.18927e-28
8 1 0.001 -0.0224999 0 -0.0430369 2.7719e-25 0 -8.35076e-13 0 3.07497e-28
157 2 0.001 -0.0174999 0 -0.0436745 2.7719e-25 0 2.29944e-12 0 2.18927e-28
158 2 0.001 -0.0174999 0 -0.0430369 2.7719e-25 0 -8.35076e-13 0 3.07497e-28
307 3 0.001 -0.0125001 0 -0.0436745 -2.7719e-25 0 2.29944e-12 0 2.18927e-28
308 3 0.001 -0.0125001 0 -0.0430369 -2.7719e-25 0 -8.35076e-13 0 3.07497e-28
457 4 0.001 -0.0075001 0 -0.0436745 -2.7719e-25 0 2.29944e-12 0 2.18927e-28
458 4 0.001 -0.0075001 0 -0.0430369 -2.7719e-25 0 -8.35076e-13 0 3.07497e-28
607 5 0.001 -0.0025001 0 -0.0436745 -2.7719e-25 0 2.29944e-12 0 2.18927e-28
608 5 0.001 -0.0025001 0 -0.0430369 -2.7719e-25 0 -8.35076e-13 0 3.07497e-28
757 6 0.001 0.0025001 0 -0.0436745 2.7719e-25 0 2.29944e-12 0 2.18927e-28
758 6 0.001 0.0025001 0 -0.0430369 2.7719e-25 0 -8.35076e-13 0 3.07497e-28
907 7 0.001 0.0074999 0 -0.0436745 -2.7719e-25 0 2.29944e-12 0 2.18927e-28
908 7 0.001 0.0074999 0 -0.0430369 -2.7719e-25 0 -8.35076e-13 0 3.07497e-28
1057 8 0.001 0.0125001 0 -0.0436745 2.7719e-25 0 2.29944e-12 0 2.18927e-28
1058 8 0.001 0.0125001 0 -0.0430369 2.7719e-25 0 -8.35076e-13 0 3.07497e-28
1207 9 0.001 0.0174999 0 -0.0436745 -2.7719e-25 0 2.29944e-12 0 2.18927e-28
1208 9 0.001 0.0174999 0 -0.0430369 -2.7719e-25 0 -8.35076e-13 0 3.07497e-28
1357 10 0.001 0.0224999 0 -0.0436745 -2.7719e-25 0 2.29944e-12 0 2.18927e-28
1358 10 0.001 0.0224999 0 -0.0430369 -2.7719e-25 0 -8.35076e-13 0 3.07497e-28
9 1 0.001 -0.0224999 0 -0.0423993 2.7719e-25 0 -5.18337e-12 0 6.63416e-28
10 1 0.001 -0.0224999 0 -0.0417617 2.7719e-25 0 7.7737e-12 0 1.2563e-27
11 1 0.001 -0.0224999 0 -0.0411242 2.7719e-25 0 -1.06574e-11 0 2.49232e-27
159 2 0.001 -0.0174999 0 -0.0423993 2.7719e-25 0 -5.18337e-12 0 6.63416e-28
160 2 0.001 -0.0174999 0 -0.0417617 2.7719e-25 0 7.7737e-12 0 1.2563e-27
161 2 0.001 -0.0174999 0 -0.0411242 2.7719e-25 0 -1.06574e-11 0 2.49232e-27
309 3 0.001 -0.0125001 0 -0.0423993 -2.7719e-25 0 -5.18337e-12 0 6.63416e-28
310 3 0.001 -0.0125001 0 -0.0417617 -2.7719e-25 0 7.7737e-12 0 1.2563e-27
311 3 0.001 -0.0125001 0 -0.0411242 -2.7719e-25 0 -1.06574e-11 0 2.49232e-27
459 4 0.001 -0.0075001 0 -0.0423993 -2.7719e-25 0 -5.18337e-12 0 6.63416e-28
460 4 0.001 -0.0075001 0 -0.0417617 -2.7719e-25 0 7.7737e-12 0 1.2563e-27
461 4 0.001 -0.0075001 0 -0.0411242 -2.7719e-25 0 -1.06574e-11 0 2.49232e-27
609 5 0.001 -0.0025001 0 -0.0423993 -2.7719e-25 0 -5.18337e-12 0 6.63416e-28
610 5 0.001 -0.0025001 0 -0.0417617 -2.7719e-25 0 7.7737e-12 0 1.2563e-27
611 5 0.001 -0.0025001 0 -0.0411242 -2.7719e-25 0 -1.06574e-11 0 2.49232e-27
759 6 0.001 0.0025001 0 -0.0423993 2.7719e-25 0 -5.18337e-12 0 6.63416e-28
760 6 0.001 0.0025001 0 -0.0417617 2.7719e-25 0 7.7737e-12 0 1.2563e-27
761 6 0.001 0.0025001 0 -0.0411242 2.7719e-25 0 -1.06574e-11 0 2.49232e-27
909 7 0.001 0.0074999 0 -0.0423993 -2.7719e-25 0 -5.18337e-12 0 6.63416e-28
910 7 0.001 0.0074999 0 -0.0417617 -2.7719e-25 0 7.7737e-12 0 1.2563e-27
911 7 0.001 0.0074999 0 -0.0411242 -2.7719e-25 0 -1.06574e-11 0 2.49232e-27
1059 8 0.001 0.0125001 0 -0.0423993 2.7719e-25 0 -5.18337e-12 0 6.63416e-28
1060 8 0.001 0.0125001 0 -0.0417617 2.7719e-25 0 7.7737e-12 0 1.2563e-27
1061 8 0.001 0.0125001 0 -0.0411242 2.7719e-25 0 -1.06574e-11 0 2.49232e-27
1209 9 0.001 0.0174999 0 -0.0423993 -2.7719e-25 0 -5.18337e-12 0 6.63416e-28
1210 9 0.001 0.0174999 0 -0.0417617 -2.7719e-25 0 7.7737e-12 0 1.2563e-27
1211 9 0.001 0.0174999 0 -0.0411242 -2.7719e-25 0 -1.06574e-11 0 2.49232e-27
1359 10 0.001 0.0224999 0 -0.0423993 -2.7719e-25 0 -5.18337e-12 0 6.63416e-28
1360 10 0.001 0.0224999 0 -0.0417617 -2.7719e-25 0 7.7737e-12 0 1.2563e-27
1361 10 0.001 0.0224999 0 -0.0411242 -2.7719e-25 0 -1.06574e-11 0 2.49232e-27
12 1 0.001 -0.0224999 0 -0.0404866 2.7719e-25 0 1.04911e-11 0 2.43725e-27
13 1 0.001 -0.0224999 0 -0.039849 2.7719e-25 0 -4.18092e-12 0 6.29987e-28
162 2 0.001 -0.0174999 0 -0.0404866 2.7719e-25 0 1.04911e-11 0 2.43725e-27
163 2 0.001 -0.0174999 0 -0.039849 2.7719e-25 0 -4.18092e-12 0 6.29987e-28
312 3 0.001 -0.0125001 0 -0.0404866 -2.7719e-25 0 1.04911e-11 0 2.43725e-27
313 3 0.001 -0.0125001 0 -0.039849 -2.7719e-25 0 -4.18092e-12 0 6.29987e-28
462 4 0.001 -0.0075001 0 -0.0404866 -2.7719e-25 0 1.04911e-11 0 2.43725e-27
463 4 0.001 -0.0075001 0 -0.039849 -2.7719e-25 0 -4.18092e-12 0 6.29987e-28
612 5 0.001 -0.0025001 0 -0.0404866 -2.7719e-25 0 1.04911e-11 0 2.43725e-27
613 5 0.001 -0.0025001 0 -0.039849 -2.7719e-25 0 -4.18092e-12 0 6.29987e-28
762 6 0.001 0.0025001 0 -0.0404866 2.7719e-25 0 1.04911e-11 0 2.43725e-27
763 6 0.001 0.0025001 0 -0.039849 2.7719e-25 0 -4.18092e-12 0 6.29987e-28
912 7 0.001 0.0074999 0 -0.0404866 -2.7719e-25 0 1.04911e-11 0 2.43725e-27
913 7 0.001 0.0074999 0 -0.039849 -2.7719e-25 0 -4.18092e-12 0 6.29987e-28
1062 8 0.001 0.0125001 0 -0.0404866 2.7719e-25 0 1.04911e-11 0 2.43725e-27
1063 8 0.001 0.0125001 0 -0.039849 2.7719e-25 0 -4.18092e-12 0 6.29987e-28
1212 9 0.001 0.0174999 0 -0.0404866 -2.7719e-25 0 1.04911e-11 0 2.43725e-27
1213 9 0.001 0.0174999 0 -0.039849 -2.7719e-25 0 -4.18092e-12 0 6.29987e-28
1362 10 0.001 0.0224999 0 -0.0404866 -2.7719e-25 0 1.04911e-11 0 2.43725e-27
1363 10 0.001 0.0224999 0 -0.039849 -2.7719e-25 0 -4.18092e-12 0 6.29987e-28
14 1 0.001 -0.0224999 0 -0.0392114 2.7719e-25 0 -1.08585e-12 0 8.27727e-29
15 1 0.001 -0.0224999 0 -0.0385738 2.7719e-25 0 4.22015e-12 0 4.13932e-28
16 1 0.001 -0.0224999 0 -0.0379362 2.7719e-25 0 -4.51201e-12 0 4.51025e-28
164 2 0.001 -0.0174999 0 -0.0392114 2.7719e-25 0 -1.08585e-12 0 8.27727e-29
165 2 0.001 -0.0174999 0 -0.0385738 2.7719e-25 0 4.22015e-12 0 4.13932e-28
166 2 0.001 -0.0174999 0 -0.0379362 2.7719e-25 0 -4.51201e-12 0 4.51025e-28
314 3 0.001 -0.0125001 0 -0.0392114 -2.7719e-25 0 -1.08585e-12 0 8.27727e-29
315 3 0.001 -0.0125001 0 -0.0385738 -2.7719e-25 0 4.22015e-12 0 4.13932e-28
316 3 0.001 -0.0125001 0 -0.0379362 -2.7719e-25 0 -4.51201e-12 0 4.51025e-28
464 4 0.001 -0.0075001 0 -0.0392114 -2.7719e-25 0 -1.08585e-12 0 8.27727e-29
465 4 0.001 -0.0075001 0 -0.0385738 -2.7719e-25 0 4.22015e-12 0 4.13932e-28
466 4 0.001 -0.0075001 0 -0.0379362 -2.7719e-25 0 -4.51201e-12 0 4.51025e-28
614 5 0.001 -0.0025001 0 -0.0392114 -2.7719e-25 0 -1.08585e-12 0 8.27727e-29
615 5 0.001 -0.0025001 0 -0.0385738 -2.7719e-25 0 4.22015e-12 0 4.13932e-28
616 5 0.001 -0.0025001 0 -0.0379362 -2.7719e-25 0 -4.51201e-12 0 4.51025e-28
764 6 0.001 0.0025001 0 -0.0392114 2.7719e-25 0 -1.08585e-12 0 8.27727e-29
765 6 0.001 0.0025001 0 -0.0385738 2.7719e-25 0 4.22015e-12 0 4.13932e-28
766 6 0.001 0.0025001 0 -0.0379362 2.7719e-25 0 -4.51201e-12 0 4.51025e-28
914 7 0.001 0.0074999 0 -0.0392114 -2.7719e-25 0 -1.08585e-12 0 8.27727e-29
915 7 0.001 0.0074999 0 -0.0385738 -2.7719e-25 0 4.22015e-12 0 4.13932e-28
916 7 0.001 0.0074999 0 -0.0379362 -2.7719e-25 0 -4.51201e-12 0 4.51025e-28
1064 8 0.001 0.0125001 0 -0.0392114 2.7719e-25 0 -1.08585e-12 0 8.27727e-29
1065 8 0.001 0.0125001 0 -0.0385738 2.7719e-25 0 4.22015e-12 0 4.13932e-28
1066 8 0.001 0.0125001 0 -0.0379362 2.7719e-25 0 -4.51201e-12 0 4.51025e-28
1214 9 0.001 0.0174999 0 -0.0392114 -2.7719e-25 0 -1.08585e-12 0 8.27727e-29
1215 9 0.001 0.0174999 0 -0.0385738 -2.7719e-25 0 4.22015e-12 0 4.13932e-28
1216 9 0.001 0.0174999 0 -0.0379362 -2.7719e-25 0 -4.51201e-12 0 4.51025e-28
1364 10 0.001 0.0224999 0 -0.0392114 -2.7719e-25 0 -1.08585e-12 0 8.27727e-29
1365 10 0.001 0.0224999 0 -0.0385738 -2.7719e-25 0 4.22015e-12 0 4.13932e-28
1366 10 0.001 0.0224999 0 -0.0379362 -2.7719e-25 0 -4.51201e-12 0 4.51025e-28
17 1 0.001 -0.0224999 0 -0.0372987 2.7719e-25 0 3.7613e-12 0 2.97166e-28
18 1 0.001 -0.0224999 0 -0.0366611 2.7719e-25 0 -4.80759e-12 0 4.87638e-28
167 2 0.001 -0.0174999 0 -0.0372987 2.7719e-25 0 3.7613e-12 0 2.97166e-28
168 2 0.001 -0.0174999 0 -0.0366611 2.7719e-25 0 -4.80759e-12 0 4.87638e-28
317 3 0.001 -0.0125001 0 -0.0372987 -2.7719e-25 0 3.7613e-12 0 2.97166e-28
318 3 0.001 -0.0125001 0 -0.0366611 -2.7719e-25 0 -4.80759e-12 0 4.87638e-28
467 4 0.001 -0.0075001 0 -0.0372987 -2.7719e-25 0 3.7613e-12 0 2.97166e-28
468 4 0.001 -0.0075001 0 -0.0366611 -2.7719e-25 0 -4.80759e-12 0 4.87638e-28
617 5 0.001 -0.0025001 0 -0.0372987 -2.7719e-25 0 3.7613e-12 0 2.97166e-28
618 5 0.001 -0.0025001 0 -0.0366611 -2.7719e-25 0 -4.80759e-12 0 4.87638e-28
767 6 0.001 0.0025001 0 -0.0372987 2.7719e-25 0 3.7613e-12 0 2.97166e-28
768 6 0.001 0.0025001 0 -0.0366611 2.7719e-25 0 -4.80759e-12 0 4.87638e-28
917 7 0.001 0.0074999 0 -0.0372987 -2.7719e-25 0 3.7613e-12 0 2.97166e-28
918 7 0.001 0.0074999 0 -0.0366611 -2.7719e-25 0 -4.80759e-12 0 4.87638e-28
1067 8 0.001 0.0125001 0 -0.0372987 2.7719e-25 0 3.7613e-12 0 2.97166e-28
1068 8 0.001 0.0125001 0 -0.0366611 2.7719e-25 0 -4.80759e-12 0 4.87638e-28
1217 9 0.001 0.0174999 0 -0.0372987 -2.7719e-25 0 3.7613e-12 0 2.97166e-28
1218 9 0.001 0.0174999 0 -0.0366611 -2.7719e-25 0 -4.80759e-12 0 4.87638e-28
1367 10 0.001 0.0224999 0 -0.0372987 -2.7719e-25 0 3.7613e-12 0 2.97166e-28
1368 10 0.001 0.0224999 0 -0.0366611 -2.7719e-25 0 -4.80759e-12 0 4.87638e-28
19 1 0.001 -0.0224999 0 -0.0360235 2.7719e-25 0 1.37959e-12 0 3.81191e-28
20 1 0.001 -0.0224999 0 -0.0353859 2.7719e-25 0 1.96534e-12 0 9.06634e-29
169 2 0.001 -0.0174999 0 -0.0360235 2.7719e-25 0 1.37959e-12 0 3.81191e-28
170 2 0.001 -0.0174999 0 -0.0353859 2.7719e-25 0 1.96534e-12 0 9.06634e-29
319 3 0.001 -0.0125001 0 -0.0360235 -2.7719e-25 0 1.37959e-12 0 3.81191e-28
320 3 0.001 -0.0125001 0 -0.0353859 -2.7719e-25 0 1.96534e-12 0 9.06634e-29
469 4 0.001 -0.0075001 0 -0.0360235 -2.7719e-25 0 1.37959e-12 0 3.81191e-28
470 4 0.001 -0.0075001 0 -0.0353859 -2.7719e-25 0 1.96534e-12 0 9.06634e-29
619 5 0.001 -0.0025001 0 -0.0360235 -2.7719e-25 0 1.37959e-12 0 3.81191e-28
620 5 0.001 -0.0025001 0 -0.0353859 -2.7719e-25 0 1.96534e-12 0 9.06634e-29
769 6 0.001 0.0025001 0 -0.0360235 2.7719e-25 0 1.37959e-12 0 3.81191e-28
770 6 0.001 0.0025001 0 -0.0353859 2.7719e-25 0 1.96534e-12 0 9.06634e-29
919 7 0.001 0.0074999 0 -0.0360235 -2.7719e-25 0 1.37959e-12 0 3.81191e-28
920 7 0.001 0.0074999 0 -0.0353859 -2.7719e-25 0 1.96534e-12 0 9.06634e-29
1069 8 0.001 0.0125001 0 -0.0360235 2.7719e-25 0 1.37959e-12 0 3.81191e-28
1070 8 0.001 0.0125001 0 -0.0353859 2.7719e-25 0 1.96534e-12 0 9.06634e-29
1219 9 0.001 0.0174999 0 -0.0360235 -2.7719e-25 0 1.37959e-12 0 3.81191e-28
1220 9 0.001 0.0174999 0 -0.0353859 -2.7719e-25 0 1.96534e-12 0 9.06634e-29
1369 10 0.001 0.0224999 0 -0.0360235 -2.7719e-25 0 1.37959e-12 0 3.81191e-28
1370 10 0.001 0.0224999 0 -0.0353859 -2.7719e-25 0 1.96534e-12 0 9.06634e-29
21 1 0.001 -0.0224999 0 -0.0347483 2.7719e-25 0 -1.46246e-12 0 4.53443e-29
22 1 0.001 -0.0224999 0 -0.0341107 2.7719e-25 0 8.14889e-12 0 2.24814e-27
23 1 0.001 -0.0224999 0 -0.0334732 2.7719e-25 0 -1.65922e-11 0 5.79341e-27
171 2 0.001 -0.0174999 0 -0.0347483 2.7719e-25 0 -1.46246e-12 0 4.53443e-29
172 2 0.001 -0.0174999 0 -0.0341107 2.7719e-25 0 8.14889e-12 0 2.24814e-27
173 2 0.001 -0.0174999 0 -0.0334732 2.7719e-25 0 -1.65922e-11 0 5.79341e-27
321 3 0.001 -0.0125001 0 -0.0347483 -2.7719e-25 0 -1.46246e-12 0 4.53443e-29
322 3 0.001 -0.0125001 0 -0.0341107 -2.7719e-25 0 8.14889e-12 0 2.24814e-27
323 3 0.001 -0.0125001 0 -0.0334732 -2.7719e-25 0 -1.65922e-11 0 5.79341e-27
471 4 0.001 -0.0075001 0 -0.0347483 -2.7719e-25 0 -1.46246e-12 0 4.53443e-29
472 4 0.001 -0.0075001 0 -0.0341107 -2.7719e-25 0 8.14889e-12 0 2.24814e-27
473 4 0.001 -0.0075001 0 -0.0334732 -2.7719e-25 0 -1.65922e-11 0 5.79341e-27
621 5 0.001 -0.0025001 0 -0.0347483 -2.7719e-25 0 -1.46246e-12 0 4.53443e-29
622 5 0.001 -0.0025001 0 -0.0341107 -2.7719e-25 0 8.14889e-12 0 2.24814e-27
623 5 0.001 -0.0025001 0 -0.0334732 -2.7719e-25 0 -1.65922e-11 0 5.79341e-27
771 6 0.001 0.0025001 0 -0.0347483 2.7719e-25 0 -1.46246e-12 0 4.53443e-29
772 6 0.001 0.0025001 0 -0.0341107 2.7719e-25 0 8.14889e-12 0 2.24814e-27
773 6 0.001 0.0025001 0 -0.0334732 2.7719e-25 0 -1.65922e-11 0 5.79341e-27
921 7 0.001 0.0074999 0 -0.0347483 -2.7719e-25 0 -1.46246e-12 0 4.53443e-29
922 7 0.001 0.0074999 0 -0.0341107 -2.7719e-25 0 8.14889e-12 0 2.24814e-27
923 7 0.001 0.0074999 0 -0.0334732 -2.7719e-25 0 -1.65922e-11 0 5.79341e-27
1071 8 0.001 0.0125001 0 -0.0347483 2.7719e-25 0 -1.46246e-12 0 4.53443e-29
1072 8 0.001 0.0125001 0 -0.0341107 2.7719e-25 0 8.14889e-12 0 2.24814e-27
1073 8 0.001 0.0125001 0 -0.0334732 2.7719e-25 0 -1.65922e-11 0 5.79341e-27
1221 9 0.001 0.0174999 0 -0.0347483 -2.7719e-25 0 -1.46246e-12 0 4.53443e-29
1222 9 0.001 0.0174999 0 -0.0341107 -2.7719e-25 0 8.14889e-12 0 2.24814e-27
1223 9 0.001 0.0174999 0 -0.0334732 -2.7719e-25 0 -1.65922e-11 0 5.79341e-27
1371 10 0.001 0.0224999 0 -0.0347483 -2.7719e-25 0 -1.46246e-12 0 4.53443e-29
1372 10 0.001 0.0224999 0 -0.0341107 -2.7719e-25 0 8.14889e-12 0 2.24814e-27
1373 10 0.001 0.0224999 0 -0.0334732 -2.7719e-25 0 -1.65922e-11 0 5.79341e-27
24 1 0.001 -0.0224999 0 -0.0328356 2.7719e-25 0 1.28312e-11 0 4.09761e-27
25 1 0.001 -0.0224999 0 -0.032198 2.7719e-25 0 -3.25962e-12 0 5.26711e-28
174 2 0.001 -0.0174999 0 -0.0328356 2.7719e-25 0 1.28312e-11 0 4.09761e-27
175 2 0.001 -0.0174999 0 -0.032198 2.7719e-25 0 -3.25962e-12 0 5.26711e-28
324 3 0.001 -0.0125001 0 -0.0328356 -2.7719e-25 0 1.28312e-11 0 4.09761e-27
325 3 0.001 -0.0125001 0 -0.032198 -2.7719e-25 0 -3.25962e-12 0 5.26711e-28
474 4 0.001 -0.0075001 0 -0.0328356 -2.7719e-25 0 1.28312e-11 0 4.09761e-27
475 4 0.001 -0.0075001 0 -0.032198 -2.7719e-25 0 -3.25962e-12 0 5.26711e-28
624 5 0.001 -0.0025001 0 -0.0328356 -2.7719e-25 0 1.28312e-11 0 4.09761e-27
625 5 0.001 -0.0025001 0 -0.032198 -2.7719e-25 0 -3.25962e-12 0 5.26711e-28
774 6 0.001 0.0025001 0 -0.0328356 2.7719e-25 0 1.28312e-11 0 4.09761e-27
775 6 0.001 0.0025001 0 -0.032198 2.7719e-25 0 -3.25962e-12 0 5.26711e-28
924 7 0.001 0.0074999 0 -0.0328356 -2.7719e-25 0 1.28312e-11 0 4.09761e-27
925 7 0.001 0.0074999 0 -0.032198 -2.7719e-25 0 -3.25962e-12 0 5.26711e-28
1074 8 0.001 0.0125001 0 -0.0328356 2.7719e-25 0 1.28312e-11 0 4.09761e-27
1075 8 0.001 0.0125001 0 -0.032198 2.7719e-25 0 -3.25962e-12 0 5.26711e-28
1224 9 0.001 0.0174999 0 -0.0328356 -2.7719e-25 0 1.28312e-11 0 4.09761e-27
1225 9 0.001 0.0174999 0 -0.032198 -2.7719e-25 0 -3.25962e-12 0 5.26711e-28
1374 10 0.001 0.0224999 0 -0.0328356 -2.7719e-25 0 1.28312e-11 0 4.09761e-27
1375 10 0.001 0.0224999 0 -0.032198 -2.7719e-25 0 -3.25962e-12 0 5.26711e-28
26 1 0.001 -0.0224999 0 -0.0315604 2.7719e-25 0 3.30112e-12 0 5.39101e-28
27 1 0.001 -0.0224999 0 -0.0309228 2.7719e-25 0 -4.66017e-12 0 5.82911e-28
176 2 0.001 -0.0174999 0 -0.0315604 2.7719e-25 0 3.30112e-12 0 5.39101e-28
177 2 0.001 -0.0174999 0 -0.0309228 2.7719e-25 0 -4.66017e-12 0 5.82911e-28
326 3 0.001 -0.0125001 0 -0.0315604 -2.7719e-25 0 3.30112e-12 0 5.39101e-28
327 3 0.001 -0.0125001 0 -0.0309228 -2.7719e-25 0 -4.66017e-12 0 5.82911e-28
476 4 0.001 -0.0075001 0 -0.0315604 -2.7719e-25 0 3.30112e-12 0 5.39101e-28
477 4 0.001 -0.0075001 0 -0.0309228 -2.7719e-25 0 -4.66017e-12 0 5.82911e-28
626 5 0.001 -0.0025001 0 -0.0315604 -2.7719e-25 0 3.30112e-12 0 5.39101e-28
627 5 0.001 -0.0025001 0 -0.0309228 -2.7719e-25 0 -4.66017e-12 0 5.82911e-28
776 6 0.001 0.0025001 0 -0.0315604 2.7719e-25 0 3.30112e-12 0 5.39101e-28
777 6 0.001 0.0025001 0 -0.0309228 2.7719e-25 0 -4.66017e-12 0 5.82911e-28
926 7 0.001 0.0074999 0 -0.0315604 -2.7719e-25 0 3.30112e-12 0 5.39101e-28
927 7 0.001 0.0074999 0 -0.0309228 -2.7719e-25 0 -4.66017e-12 0 5.82911e-28
1076 8 0.001 0.0125001 0 -0.0315604 2.7719e-25 0 3.30112e-12 0 5.39101e-28
1077 8 0.001 0.0125001 0 -0.0309228 2.7719e-25 0 -4.66017e-12 0 5.82911e-28
1226 9 0.001 0.0174999 0 -0.0315604 -2.7719e-25 0 3.30112e-12 0 5.39101e-28
1227 9 0.001 0.0174999 0 -0.0309228 -2.7719e-25 0 -4.66017e-12 0 5.82911e-28
1376 10 0.001 0.0224999 0 -0.0315604 -2.7719e-25 0 3.30112e-12 0 5.39101e-28
1377 10 0.001 0.0224999 0 -0.0309228 -2.7719e-25 0 -4.66017e-12 0 5.82911e-28
28 1 0.001 -0.0224999 0 -0.0302852 2.7719e-25 0 5.64205e-13 0 5.78352e-29
29 1 0.001 -0.0224999 0 -0.0296477 2.7719e-25 0 -3.76262e-13 0 4.26348e-29
30 1 0.001 -0.0224999 0 -0.0290101 2.7719e-25 0 2.48662e-12 0 1.39309e-28
178 2 0.001 -0.0174999 0 -0.0302852 2.7719e-25 0 5.64205e-13 0 5.78352e-29
179 2 0.001 -0.0174999 0 -0.0296477 2.7719e-25 0 -3.76262e-13 0 4.26348e-29
180 2 0.001 -0.0174999 0 -0.0290101 2.7719e-25 0 2.48662e-12 0 1.39309e-28
328 3 0.001 -0.0125001 0 -0.0302852 -2.7719e-25 0 5.64205e-13 0 5.78352e-29
329 3 0.001 -0.0125001 0 -0.0296477 -2.7719e-25 0 -3.76262e-13 0 4.26348e-29
330 3 0.001 -0.0125001 0 -0.0290101 -2.7719e-25 0 2.48662e-12 0 1.39309e-28
478 4 0.001 -0.0075001 0 -0.0302852 -2.7719e-25 0 5.64205e-13 0 5.78352e-29
479 4 0.001 -0.0075001 0 -0.0296477 -2.7719e-25 0 -3.76262e-13 0 4.26348e-29
480 4 0.001 -0.0075001 0 -0.0290101 -2.7719e-25 0 2.48662e-12 0 1.39309e-28
628 5 0.001 -0.0025001 0 -0.0302852 -2.7719e-25 0 5.64205e-13 0 5.78352e-29
629 5 0.001 -0.0025001 0 -0.0296477 -2.7719e-25 0 -3.76262e-13 0 4.26348e-29
630 5 0.001 -0.0025001 0 -0.0290101 -2.7719e-25 0 2.48662e-12 0 1.39309e-28
778 6 0.001 0.0025001 0 -0.0302852 2.7719e-25 0 5.64205e-13 0 5.78352e-29
779 6 0.001 0.0025001 0 -0.0296477 2.7719e-25 0 -3.76262e-13 0 4.26348e-29
780 6 0.001 0.0025001 0 -0.0290101 2.7719e-25 0 2.48662e-12 0 1.39309e-28
928 7 0.001 0.0074999 0 -0.0302852 -2.7719e-25 0 5.64205e-13 0 5.78352e-29
929 7 0.001 0.0074999 0 -0.0296477 -2.7719e-25 0 -3.76262e-13 0 4.26348e-29
930 7 0.001 0.0074999 0 -0.0290101 -2.7719e-25 0 2.48662e-12 0 1.39309e-28
1078 8 0.001 0.0125001 0 -0.0302852 2.7719e-25 0 5.64205e-13 0 5.78352e-29
1079 8 0.001 0.0125001 0 -0.0296477 2.7719e-25 0 -3.76262e-13 0 4.26348e-29
1080 8 0.001 0.0125001 0 -0.0290101 2.7719e-25 0 2.48662e-12 0 1.39309e-28
1228 9 0.001 0.0174999 0 -0.0302852 -2.7719e-25 0 5.64205e-13 0 5.78352e-29
1229 9 0.001 0.0174999 0 -0.0296477 -2.7719e-25 0 -3.76262e-13 0 4.26348e-29
1230 9 0.001 0.0174999 0 -0.0290101 -2.7719e-25 0 2.48662e-12 0 1.39309e-28
1378 10 0.001 0.0224999 0 -0.0302852 -2.7719e-25 0 5.64205e-13 0 5.78352e-29
1379 10 0.001 0.0224999 0 -0.0296477 -2.7719e-25 0 -3.76262e-13 0 4.26348e-29
1380 10 0.001 0.0224999 0 -0.0290101 -2.7719e-25 0 2.48662e-12 0 1.39309e-28
31 1 0.001 -0.0224999 0 -0.0283725 2.7719e-25 0 -2.06857e-12 0 1.16043e-28
32 1 0.001 -0.0224999 0 -0.0277349 2.7719e-25 0 -3.75698e-13 0 3.79815e-29
181 2 0.001 -0.0174999 0 -0.0283725 2.7719e-25 0 -2.06857e-12 0 1.16043e-28
182 2 0.001 -0.0174999 0 -0.0277349 2.7719e-25 0 -3.75698e-13 0 3.79815e-29
331 3 0.001 -0.0125001 0 -0.0283725 -2.7719e-25 0 -2.06857e-12 0 1.16043e-28
332 3 0.001 -0.0125001 0 -0.0277349 -2.7719e-25 0 -3.75698e-13 0 3.79815e-29
481 4 0.001 -0.0075001 0 -0.0283725 -2.7719e-25 0 -2.06857e-12 0 1.16043e-28
482 4 0.001 -0.0075001 0 -0.0277349 -2.7719e-25 0 -3.75698e-13 0 3.79815e-29
631 5 0.001 -0.0025001 0 -0.0283725 -2.7719e-25 0 -2.06857e-12 0 1.16043e-28
632 5 0.001 -0.0025001 0 -0.0277349 -2.7719e-25 0 -3.75698e-13 0 3.79815e-29
781 6 0.001 0.0025001 0 -0.0283725 2.7719e-25 0 -2.06857e-12 0 1.16043e-28
782 6 0.001 0.0025001 0 -0.0277349 2.7719e-25 0 -3.75698e-13 0 3.79815e-29
931 7 0.001 0.0074999 0 -0.0283725 -2.7719e-25 0 -2.06857e-12 0 1.16043e-28
932 7 0.001 0.0074999 0 -0.0277349 -2.7719e-25 0 -3.75698e-13 0 3.79815e-29
1081 8 0.001 0.0125001 0 -0.0283725 2.7719e-25 0 -2.06857e-12 0 1.16043e-28
1082 8 0.001 0.0125001 0 -0.0277349 2.7719e-25 0 -3.75698e-13 0 3.79815e-29
1231 9 0.001 0.0174999 0 -0.0283725 -2.7719e-25 0 -2.06857e-12 0 1.16043e-28
1232 9 0.001 0.0174999 0 -0.0277349 -2.7719e-25 0 -3.75698e-13 0 3.79815e-29
1381 10 0.001 0.0224999 0 -0.0283725 -2.7719e-25 0 -2.06857e-12 0 1.16043e-28
1382 10 0.001 0.0224999 0 -0.0277349 -2.7719e-25 0 -3.75698e-13 0 3.79815e-29
33 1 0.001 -0.0224999 0 -0.0270973 2.7719e-25 0 -1.35773e-12 0 2.29309e-28
34 1 0.001 -0.0224999 0 -0.0264597 2.7719e-25 0 4.8681e-12 0 4.96683e-28
35 1 0.001 -0.0224999 0 -0.0258221 2.7719e-25 0 -5.57862e-12 0 6.47156e-28
183 2 0.001 -0.0174999 0 -0.0270973 2.7719e-25 0 -1.35773e-12 0 2.29309e-28
184 2 0.001 -0.0174999 0 -0.0264597 2.7719e-25 0 4.8681e-12 0 4.96683e-28
185 2 0.001 -0.0174999 0 -0.0258221 2.7719e-25 0 -5.57862e-12 0 6.47156e-28
333 3 0.001 -0.0125001 0 -0.0270973 -2.7719e-25 0 -1.35773e-12 0 2.29309e-28
334 3 0.001 -0.0125001 0 -0.0264597 -2.7719e-25 0 4.8681e-12 0 4.96683e-28
335 3 0.001 -0.0125001 0 -0.0258221 -2.7719e-25 0 -5.57862e-12 0 6.47156e-28
483 4 0.001 -0.0075001 0 -0.0270973 -2.7719e-25 0 -1.35773e-12 0 2.29309e-28
484 4 0.001 -0.0075001 0 -0.0264597 -2.7719e-25 0 4.8681e-12 0 4.96683e-28
485 4 0.001 -0.0075001 0 -0.0258221 -2.7719e-25 0 -5.57862e-12 0 6.47156e-28
633 5 0.001 -0.0025001 0 -0.0270973 -2.7719e-25 0 -1.35773e-12 0 2.29309e-28
634 5 0.001 -0.0025001 0 -0.0264597 -2.7719e-25 0 4.8681e-12 0 4.96683e-28
635 5 0.001 -0.0025001 0 -0.0258221 -2.7719e-25 0 -5.57862e-12 0 6.47156e-28
783 6 0.001 0.0025001 0 -0.0270973 2.7719e-25 0 -1.35773e-12 0 2.29309e-28
784 6 0.001 0.0025001 0 -0.0264597 2.7719e-25 0 4.8681e-12 0 4.96683e-28
785 6 0.001 0.0025001 0 -0.0258221 2.7719e-25 0 -5.57862e-12 0 6.47156e-28
933 7 0.001 0.0074999 0 -0.0270973 -2.7719e-25 0 -1.35773e-12 0 2.29309e-28
934 7 0.001 0.0074999 0 -0.0264597 -2.7719e-25 0 4.8681e-12 0 4.96683e-28
935 7 0.001 0.0074999 0 -0.0258221 -2.7719e-25 0 -5.57862e-12 0 6.47156e-28
1083 8 0.001 0.0125001 0 -0.0270973 2.7719e-25 0 -1.35773e-12 0 2.29309e-28
1084 8 0.001 0.0125001 0 -0.0264597 2.7719e-25 0 4.8681e-12 0 4.96683e-28
1085 8 0.001 0.0125001 0 -0.0258221 2.7719e-25 0 -5.57862e-12 0 6.47156e-28
1233 9 0.001 0.0174999 0 -0.0270973 -2.7719e-25 0 -1.35773e-12 0 2.29309e-28
1234 9 0.001 0.0174999 0 -0.0264597 -2.7719e-25 0 4.8681e-12 0 4.96683e-28
1235 9 0.001 0.0174999 0 -0.0258221 -2.7719e-25 0 -5.57862e-12 0 6.47156e-28
1383 10 0.001 0.0224999 0 -0.0270973 -2.7719e-25 0 -1.35773e-12 0 2.29309e-28
1384 10 0.001 0.0224999 0 -0.0264597 -2.7719e-25 0 4.8681e-12 0 4.96683e-28
1385 10 0.001 0.0224999 0 -0.0258221 -2.7719e-25 0 -5.57862e-12 0 6.47156e-28
36 1 0.001 -0.0224999 0 -0.0251846 2.7719e-25 0 6.3718e-12 0 8.49508e-28
37 1 0.001 -0.0224999 0 -0.024547 2.7719e-25 0 -1.90062e-12 0 6.00554e-28
186 2 0.001 -0.0174999 0 -0.0251846 2.7719e-25 0 6.3718e-12 0 8.49508e-28
187 2 0.001 -0.0174999 0 -0.024547 2.7719e-25 0 -1.90062e-12 0 6.00554e-28
336 3 0.001 -0.0125001 0 -0.0251846 -2.7719e-25 0 6.3718e-12 0 8.49508e-28
337 3 0.001 -0.0125001 0 -0.024547 -2.7719e-25 0 -1.90062e-12 0 6.00554e-28
486 4 0.001 -0.0075001 0 -0.0251846 -2.7719e-25 0 6.3718e-12 0 8.49508e-28
487 4 0.001 -0.0075001 0 -0.024547 -2.7719e-25 0 -1.90062e-12 0 6.00554e-28
636 5 0.001 -0.0025001 0 -0.0251846 -2.7719e-25 0 6.3718e-12 0 8.49508e-28
637 5 0.001 -0.0025001 0 -0.024547 -2.7719e-25 0 -1.90062e-12 0 6.00554e-28
786 6 0.001 0.0025001 0 -0.0251846 2.7719e-25 0 6.3718e-12 0 8.49508e-28
787 6 0.001 0.0025001 0 -0.024547 2.7719e-25 0 -1.90062e-12 0 6.00554e-28
936 7 0.001 0.0074999 0 -0.0251846 -2.7719e-25 0 6.3718e-12 0 8.49508e-28
937 7 0.001 0.0074999 0 -0.024547 -2.7719e-25 0 -1.90062e-12 0 6.00554e-28
1086 8 0.001 0.0125001 0 -0.0251846 2.7719e-25 0 6.3718e-12 0 8.49508e-28
1087 8 0.001 0.0125001 0 -0.024547 2.7719e-25 0 -1.90062e-12 0 6.00554e-28
1236 9 0.001 0.0174999 0 -0.0251846 -2.7719e-25 0 6.3718e-12 0 8.49508e-28
1237 9 0.001 0.0174999 0 -0.024547 -2.7719e-25 0 -1.90062e-12 0 6.00554e-28
1386 10 0.001 0.0224999 0 -0.0251846 -2.7719e-25 0 6.3718e-12 0 8.49508e-28
1387 10 0.001 0.0224999 0 -0.024547 -2.7719e-25 0 -1.90062e-12 0 6.00554e-28
38 1 0.001 -0.0224999 0 -0.0239094 2.7719e-25 0 -5.28738e-12 0 6.76539e-28
39 1 0.001 -0.0224999 0 -0.0232718 2.7719e-25 0 3.40676e-12 0 5.78975e-28
188 2 0.001 -0.0174999 0 -0.0239094 2.7719e-25 0 -5.28738e-12 0 6.76539e-28
189 2 0.001 -0.0174999 0 -0.0232718 2.7719e-25 0 3.40676e-12 0 5.78975e-28
338 3 0.001 -0.0125001 0 -0.0239094 -2.7719e-25 0 -5.28738e-12 0 6.76539e-28
339 3 0.001 -0.0125001 0 -0.0232718 -2.7719e-25 0 3.40676e-12 0 5.78975e-28
488 4 0.001 -0.0075001 0 -0.0239094 -2.7719e-25 0 -5.28738e-12 0 6.76539e-28
489 4 0.001 -0.0075001 0 -0.0232718 -2.7719e-25 0 3.40676e-12 0 5.78975e-28
638 5 0.001 -0.0025001 0 -0.0239094 -2.7719e-25 0 -5.28738e-12 0 6.76539e-28
639 5 0.001 -0.0025001 0 -0.0232718 -2.7719e-25 0 3.40676e-12 0 5.78975e-28
788 6 0.001 0.0025001 0 -0.0239094 2.7719e-25 0 -5.28738e-12 0 6.76539e-28
789 6 0.001 0.0025001 0 -0.0232718 2.7719e-25 0 3.40676e-12 0 5.78975e-28
938 7 0.001 0.0074999 0 -0.0239094 -2.7719e-25 0 -5.28738e-12 0 6.76539e-28
939 7 0.001 0.0074999 0 -0.0232718 -2.7719e-25 0 3.40676e-12 0 5.78975e-28
1088 8 0.001 0.0125001 0 -0.0239094 2.7719e-25 0 -5.28738e-12 0 6.76539e-28
1089 8 0.001 0.0125001 0 -0.0232718 2.7719e-25 0 3.40676e-12 0 5.78975e-28
1238 9 0.001 0.0174999 0 -0.0239094 -2.7719e-25 0 -5.28738e-12 0 6.76539e-28
1239 9 0.001 0.0174999 0 -0.0232718 -2.7719e-25 0 3.40676e-12 0 5.78975e-28
1388 10 0.001 0.0224999 0 -0.0239094 -2.7719e-25 0 -5.28738e-12 0 6.76539e-28
1389 10 0.001 0.0224999 0 -0.0232718 -2.7719e-25 0 3.40676e-12 0 5.78975e-28
40 1 0.001 -0.0224999 0 -0.0226342 2.7719e-25 0 3.11269e-12 0 3.29109e-28
41 1 0.001 -0.0224999 0 -0.0219966 2.7719e-25 0 -3.36292e-12 0 3.38284e-28
42 1 0.001 -0.0224999 0 -0.0213591 2.7719e-25 0 2.42343e-12 0 1.56562e-28