ITEM: TIMESTEP
1800000
ITEM: NUMBER OF ATOMS
6
ITEM: BOX BOUNDS pp pp ff
-2.5000000000000000e-01 2.5000000000000000e-01
-2.5000000000000000e-01 2.5000000000000000e-01
-1.0000000000000001e-01 1.0000000000000001e-01
ITEM: ATOMS id type radius x y z fx fy fz c_bendingE c_stretchingE
6 1 0.015 -0.00719714 -0.00719714 -0.036144 8.78738 8.78738 68.8188 3.63635e-06 0.137675
5 1 0.015 -0.00491929 -0.00491929 -0.0186152 -20.2243 -20.2243 -55.3289 0.0110451 0.145325
4 1 0.015 -0.00335873 -0.00335873 -0.00697876 46.5001 46.5001 21.0595 0.0240082 0.107928
3 1 0.015 0.0023153 0.0023153 0.00763964 -59.8034 -59.8034 -6.29955 0.043993 0.133338
2 1 0.015 0.00388244 0.00388244 0.0212941 46.7922 46.7922 -22.4316 0.0329516 0.0657466
1 1 0.015 0.00928028 0.00928028 0.0328043 -22.052 -22.052 -5.81822 0.0199884 0.0326873
