ITEM: TIMESTEP
7200000
ITEM: NUMBER OF ATOMS
1500
ITEM: BOX BOUNDS ff ff ff
-2.5000000000000001e-02 2.5000000000000001e-02
-5.0000000000000001e-03 5.0000000000000001e-03
-5.0000000000000003e-02 5.0000000000000003e-02
ITEM: ATOMS id type radius x y z fx fy fz c_bendingE c_stretchingE
1 1 0.001 -0.0224999 0 -0.0475 2.7719e-25 0 4.99527e-13 0 1.0358e-29
151 2 0.001 -0.0174999 0 -0.0475 2.7719e-25 0 4.99527e-13 0 1.0358e-29
301 3 0.001 -0.0125001 0 -0.0475 -2.7719e-25 0 4.99527e-13 0 1.0358e-29
451 4 0.001 -0.00750007 0 -0.0475 -2.7719e-25 0 4.99527e-13 0 1.0358e-29
601 5 0.001 -0.00250007 0 -0.0475 -2.7719e-25 0 4.99527e-13 0 1.0358e-29
751 6 0.001 0.00250007 0 -0.0475 2.7719e-25 0 4.99527e-13 0 1.0358e-29
901 7 0.001 0.00749993 0 -0.0475 -2.7719e-25 0 4.99527e-13 0 1.0358e-29
1051 8 0.001 0.0125001 0 -0.0475 2.7719e-25 0 4.99527e-13 0 1.0358e-29
1201 9 0.001 0.0174999 0 -0.0475 -2.7719e-25 0 4.99527e-13 0 1.0358e-29
1351 10 0.001 0.0224999 0 -0.0475 -2.7719e-25 0 4.99527e-13 0 1.0358e-29
2 1 0.001 -0.0224999 0 -0.0468624 2.7719e-25 0 -7.52758e-13 0 1.30088e-29
3 1 0.001 -0.0224999 0 -0.0462248 2.7719e-25 0 -7.92969e-13 0 4.81309e-29
4 1 0.001 -0.0224999 0 -0.0455872 2.7719e-25 0 4.59725e-12 0 5.68687e-28
152 2 0.001 -0.0174999 0 -0.0468624 2.7719e-25 0 -7.52758e-13 0 1.30088e-29
153 2 0.001 -0.0174999 0 -0.0462248 2.7719e-25 0 -7.92969e-13 0 4.81309e-29
154 2 0.001 -0.0174999 0 -0.0455872 2.7719e-25 0 4.59725e-12 0 5.68687e-28
302 3 0.001 -0.0125001 0 -0.0468624 -2.7719e-25 0 -7.52758e-13 0 1.30088e-29
303 3 0.001 -0.0125001 0 -0.0462248 -2.7719e-25 0 -7.92969e-13 0 4.81309e-29
304 3 0.001 -0.0125001 0 -0.0455872 -2.7719e-25 0 4.59725e-12 0 5.68687e-28
452 4 0.001 -0.00750007 0 -0.0468624 -2.7719e-25 0 -7.52758e-13 0 1.30088e-29
453 4 0.001 -0.00750007 0 -0.0462248 -2.7719e-25 0 -7.92969e-13 0 4.81309e-29
454 4 0.001 -0.00750007 0 -0.0455872 -2.7719e-25 0 4.59725e-12 0 5.68687e-28
602 5 0.001 -0.00250007 0 -0.0468624 -2.7719e-25 0 -7.52758e-13 0 1.30088e-29
603 5 0.001 -0.00250007 0 -0.0462248 -2.7719e-25 0 -7.92969e-13 0 4.81309e-29
604 5 0.001 -0.00250007 0 -0.0455872 -2.7719e-25 0 4.59725e-12 0 5.68687e-28
752 6 0.001 0.00250007 0 -0.0468624 2.7719e-25 0 -7.52758e-13 0 1.30088e-29
753 6 0.001 0.00250007 0 -0.0462248 2.7719e-25 0 -7.92969e-13 0 4.81309e-29
754 6 0.001 0.00250007 0 -0.0455872 2.7719e-25 0 4.59725e-12 0 5.68687e-28
902 7 0.001 0.00749993 0 -0.0468624 -2.7719e-25 0 -7.52758e-13 0 1.30088e-29
903 7 0.001 0.00749993 0 -0.0462248 -2.7719e-25 0 -7.92969e-13 0 4.81309e-29
904 7 0.001 0.00749993 0 -0.0455872 -2.7719e-25 0 4.59725e-12 0 5.68687e-28
1052 8 0.001 0.0125001 0 -0.0468624 2.7719e-25 0 -7.52758e-13 0 1.30088e-29
1053 8 0.001 0.0125001 0 -0.0462248 2.7719e-25 0 -7.92969e-13 0 4.81309e-29
1054 8 0.001 0.0125001 0 -0.0455872 2.7719e-25 0 4.59725e-12 0 5.68687e-28
1202 9 0.001 0.0174999 0 -0.0468624 -2.7719e-25 0 -7.52758e-13 0 1.30088e-29
1203 9 0.001 0.0174999 0 -0.0462248 -2.7719e-25 0 -7.92969e-13 0 4.81309e-29
1204 9 0.001 0.0174999 0 -0.0455872 -2.7719e-25 0 4.59725e-12 0 5.68687e-28
1352 10 0.001 0.0224999 0 -0.0468624 -2.7719e-25 0 -7.52758e-13 0 1.30088e-29
1353 10 0.001 0.0224999 0 -0.0462248 -2.7719e-25 0 -7.92969e-13 0 4.81309e-29
1354 10 0.001 0.0224999 0 -0.0455872 -2.7719e-25 0 4.59725e-12 0 5.68687e-28
5 1 0.001 -0.0224999 0 -0.0449497 2.7719e-25 0 -4.51381e-12 0 5.61713e-28
6 1 0.001 -0.0224999 0 -0.0443121 2.7719e-25 0 -1.46217e-12 0 2.82778e-28
155 2 0.001 -0.0174999 0 -0.0449497 2.7719e-25 0 -4.51381e-12 0 5.61713e-28
156 2 0.001 -0.0174999 0 -0.0443121 2.7719e-25 0 -1.46217e-12 0 2.82778e-28
305 3 0.001 -0.0125001 0 -0.0449497 -2.7719e-25 0 -4.51381e-12 0 5.61713e-28
306 3 0.001 -0.0125001 0 -0.0443121 -2.7719e-25 0 -1.46217e-12 0 2.82778e-28
455 4 0.001 -0.00750007 0 -0.0449497 -2.7719e-25 0 -4.51381e-12 0 5.61713e-28
456 4 0.001 -0.00750007 0 -0.0443121 -2.7719e-25 0 -1.46217e-12 0 2.82778e-28
605 5 0.001 -0.00250007 0 -0.0449497 -2.7719e-25 0 -4.51381e-12 0 5.61713e-28
606 5 0.001 -0.00250007 0 -0.0443121 -2.7719e-25 0 -1.46217e-12 0 2.82778e-28
755 6 0.001 0.00250007 0 -0.0449497 2.7719e-25 0 -4.51381e-12 0 5.61713e-28
756 6 0.001 0.00250007 0 -0.0443121 2.7719e-25 0 -1.46217e-12 0 2.82778e-28
905 7 0.001 0.00749993 0 -0.0449497 -2.7719e-25 0 -4.51381e-12 0 5.61713e-28
906 7 0.001 0.00749993 0 -0.0443121 -2.7719e-25 0 -1.46217e-12 0 2.82778e-28
1055 8 0.001 0.0125001 0 -0.0449497 2.7719e-25 0 -4.51381e-12 0 5.61713e-28
1056 8 0.001 0.0125001 0 -0.0443121 2.7719e-25 0 -1.46217e-12 0 2.82778e-28
1205 9 0.001 0.0174999 0 -0.0449497 -2.7719e-25 0 -4.51381e-12 0 5.61713e-28
1206 9 0.001 0.0174999 0 -0.0443121 -2.7719e-25 0 -1.46217e-12 0 2.82778e-28
1355 10 0.001 0.0224999 0 -0.0449497 -2.7719e-25 0 -4.51381e-12 0 5.61713e-28
1356 10 0.001 0.0224999 0 -0.0443121 -2.7719e-25 0 -1.46217e-12 0 2.82778e-28
7 1 0.001 -0.0224999 0 -0.0436745 2.7719e-25 0 4.42895e-12 0 4.10976e-28
8 1 0.001 -0.0224999 0 -0.0430369 2.7719e-25 0 1.96386e-12 0 8.20336e-28
157 2 0.001 -0.0174999 0 -0.0436745 2.7719e-25 0 4.42895e-12 0 4.10976e-28
158 2 0.001 -0.0174999 0 -0.0430369 2.7719e-25 0 1.96386e-12 0 8.20336e-28
307 3 0.001 -0.0125001 0 -0.0436745 -2.7719e-25 0 4.42895e-12 0 4.10976e-28
308 3 0.001 -0.0125001 0 -0.0430369 -2.7719e-25 0 1.96386e-12 0 8.20336e-28
457 4 0.001 -0.00750007 0 -0.0436745 -2.7719e-25 0 4.42895e-12 0 4.10976e-28
458 4 0.001 -0.00750007 0 -0.0430369 -2.7719e-25 0 1.96386e-12 0 8.20336e-28
607 5 0.001 -0.00250007 0 -0.0436745 -2.7719e-25 0 4.42895e-12 0 4.10976e-28
608 5 0.001 -0.00250007 0 -0.0430369 -2.7719e-25 0 1.96386e-12 0 8.20336e-28
757 6 0.001 0.00250007 0 -0.0436745 2.7719e-25 0 4.42895e-12 0 4.10976e-28
758 6 0.001 0.00250007 0 -0.0430369 2.7719e-25 0 1.96386e-12 0 8.20336e-28
907 7 0.001 0.00749993 0 -0.0436745 -2.7719e-25 0 4.42895e-12 0 4.10976e-28
908 7 0.001 0.00749993 0 -0.0430369 -2.7719e-25 0 1.96386e-12 0 8.20336e-28
1057 8 0.001 0.0125001 0 -0.0436745 2.7719e-25 0 4.42895e-12 0 4.10976e-28
1058 8 0.001 0.0125001 0 -0.0430369 2.7719e-25 0 1.96386e-12 0 8.20336e-28
1207 9 0.001 0.0174999 0 -0.0436745 -2.7719e-25 0 4.42895e-12 0 4.10976e-28
1208 9 0.001 0.0174999 0 -0.0430369 -2.7719e-25 0 1.96386e-12 0 8.20336e-28
1357 10 0.001 0.0224999 0 -0.0436745 -2.7719e-25 0 4.42895e-12 0 4.10976e-28
1358 10 0.001 0.0224999 0 -0.0430369 -2.7719e-25 0 1.96386e-12 0 8.20336e-28
9 1 0.001 -0.0224999 0 -0.0423993 2.7719e-25 0 -5.97668e-12 0 8.20989e-28
10 1 0.001 -0.0224999 0 -0.0417617 2.7719e-25 0 -1.16828e-12 0 5.86611e-28
11 1 0.001 -0.0224999 0 -0.0411242 2.7719e-25 0 2.96546e-12 0 4.211e-28
159 2 0.001 -0.0174999 0 -0.0423993 2.7719e-25 0 -5.97668e-12 0 8.20989e-28
160 2 0.001 -0.0174999 0 -0.0417617 2.7719e-25 0 -1.16828e-12 0 5.86611e-28
161 2 0.001 -0.0174999 0 -0.0411242 2.7719e-25 0 2.96546e-12 0 4.211e-28
309 3 0.001 -0.0125001 0 -0.0423993 -2.7719e-25 0 -5.97668e-12 0 8.20989e-28
310 3 0.001 -0.0125001 0 -0.0417617 -2.7719e-25 0 -1.16828e-12 0 5.86611e-28
311 3 0.001 -0.0125001 0 -0.0411242 -2.7719e-25 0 2.96546e-12 0 4.211e-28
459 4 0.001 -0.00750007 0 -0.0423993 -2.7719e-25 0 -5.97668e-12 0 8.20989e-28
460 4 0.001 -0.00750007 0 -0.0417617 -2.7719e-25 0 -1.16828e-12 0 5.86611e-28
461 4 0.001 -0.00750007 0 -0.0411242 -2.7719e-25 0 2.96546e-12 0 4.211e-28
609 5 0.001 -0.00250007 0 -0.0423993 -2.7719e-25 0 -5.97668e-12 0 8.20989e-28
610 5 0.001 -0.00250007 0 -0.0417617 -2.7719e-25 0 -1.16828e-12 0 5.86611e-28
611 5 0.001 -0.00250007 0 -0.0411242 -2.7719e-25 0 2.96546e-12 0 4.211e-28
759 6 0.001 0.00250007 0 -0.0423993 2.7719e-25 0 -5.97668e-12 0 8.20989e-28
760 6 0.001 0.00250007 0 -0.0417617 2.7719e-25 0 -1.16828e-12 0 5.86611e-28
761 6 0.001 0.00250007 0 -0.0411242 2.7719e-25 0 2.96546e-12 0 4.211e-28
909 7 0.001 0.00749993 0 -0.0423993 -2.7719e-25 0 -5.97668e-12 0 8.20989e-28
910 7 0.001 0.00749993 0 -0.0417617 -2.7719e-25 0 -1.16828e-12 0 5.86611e-28
911 7 0.001 0.00749993 0 -0.0411242 -2.7719e-25 0 2.96546e-12 0 4.211e-28
1059 8 0.001 0.0125001 0 -0.0423993 2.7719e-25 0 -5.97668e-12 0 8.20989e-28
1060 8 0.001 0.0125001 0 -0.0417617 2.7719e-25 0 -1.16828e-12 0 5.86611e-28
1061 8 0.001 0.0125001 0 -0.0411242 2.7719e-25 0 2.96546e-12 0 4.211e-28
1209 9 0.001 0.0174999 0 -0.0423993 -2.7719e-25 0 -5.97668e-12 0 8.20989e-28
1210 9 0.001 0.0174999 0 -0.0417617 -2.7719e-25 0 -1.16828e-12 0 5.86611e-28
1211 9 0.001 0.0174999 0 -0.0411242 -2.7719e-25 0 2.96546e-12 0 4.211e-28
1359 10 0.001 0.0224999 0 -0.0423993 -2.7719e-25 0 -5.97668e-12 0 8.20989e-28
1360 10 0.001 0.0224999 0 -0.0417617 -2.7719e-25 0 -1.16828e-12 0 5.86611e-28
1361 10 0.001 0.0224999 0 -0.0411242 -2.7719e-25 0 2.96546e-12 0 4.211e-28
12 1 0.001 -0.0224999 0 -0.0404866 2.7719e-25 0 2.71723e-12 0 2.62425e-28
13 1 0.001 -0.0224999 0 -0.039849 2.7719e-25 0 -2.71746e-12 0 2.62425e-28
162 2 0.001 -0.0174999 0 -0.0404866 2.7719e-25 0 2.71723e-12 0 2.62425e-28
163 2 0.001 -0.0174999 0 -0.039849 2.7719e-25 0 -2.71746e-12 0 2.62425e-28
312 3 0.001 -0.0125001 0 -0.0404866 -2.7719e-25 0 2.71723e-12 0 2.62425e-28
313 3 0.001 -0.0125001 0 -0.039849 -2.7719e-25 0 -2.71746e-12 0 2.62425e-28
462 4 0.001 -0.00750007 0 -0.0404866 -2.7719e-25 0 2.71723e-12 0 2.62425e-28
463 4 0.001 -0.00750007 0 -0.039849 -2.7719e-25 0 -2.71746e-12 0 2.62425e-28
612 5 0.001 -0.00250007 0 -0.0404866 -2.7719e-25 0 2.71723e-12 0 2.62425e-28
613 5 0.001 -0.00250007 0 -0.039849 -2.7719e-25 0 -2.71746e-12 0 2.62425e-28
762 6 0.001 0.00250007 0 -0.0404866 2.7719e-25 0 2.71723e-12 0 2.62425e-28
763 6 0.001 0.00250007 0 -0.039849 2.7719e-25 0 -2.71746e-12 0 2.62425e-28
912 7 0.001 0.00749993 0 -0.0404866 -2.7719e-25 0 2.71723e-12 0 2.62425e-28
913 7 0.001 0.00749993 0 -0.039849 -2.7719e-25 0 -2.71746e-12 0 2.62425e-28
1062 8 0.001 0.0125001 0 -0.0404866 2.7719e-25 0 2.71723e-12 0 2.62425e-28
1063 8 0.001 0.0125001 0 -0.039849 2.7719e-25 0 -2.71746e-12 0 2.62425e-28
1212 9 0.001 0.0174999 0 -0.0404866 -2.7719e-25 0 2.71723e-12 0 2.62425e-28
1213 9 0.001 0.0174999 0 -0.039849 -2.7719e-25 0 -2.71746e-12 0 2.62425e-28
1362 10 0.001 0.0224999 0 -0.0404866 -2.7719e-25 0 2.71723e-12 0 2.62425e-28
1363 10 0.001 0.0224999 0 -0.039849 -2.7719e-25 0 -2.71746e-12 0 2.62425e-28
14 1 0.001 -0.0224999 0 -0.0392114 2.7719e-25 0 -1.88113e-12 0 1.83427e-28
15 1 0.001 -0.0224999 0 -0.0385738 2.7719e-25 0 -5.41749e-13 0 4.69745e-28
16 1 0.001 -0.0224999 0 -0.0379362 2.7719e-25 0 7.14533e-12 0 1.13303e-27
164 2 0.001 -0.0174999 0 -0.0392114 2.7719e-25 0 -1.88113e-12 0 1.83427e-28
165 2 0.001 -0.0174999 0 -0.0385738 2.7719e-25 0 -5.41749e-13 0 4.69745e-28
166 2 0.001 -0.0174999 0 -0.0379362 2.7719e-25 0 7.14533e-12 0 1.13303e-27
314 3 0.001 -0.0125001 0 -0.0392114 -2.7719e-25 0 -1.88113e-12 0 1.83427e-28
315 3 0.001 -0.0125001 0 -0.0385738 -2.7719e-25 0 -5.41749e-13 0 4.69745e-28
316 3 0.001 -0.0125001 0 -0.0379362 -2.7719e-25 0 7.14533e-12 0 1.13303e-27
464 4 0.001 -0.00750007 0 -0.0392114 -2.7719e-25 0 -1.88113e-12 0 1.83427e-28
465 4 0.001 -0.00750007 0 -0.0385738 -2.7719e-25 0 -5.41749e-13 0 4.69745e-28
466 4 0.001 -0.00750007 0 -0.0379362 -2.7719e-25 0 7.14533e-12 0 1.13303e-27
614 5 0.001 -0.00250007 0 -0.0392114 -2.7719e-25 0 -1.88113e-12 0 1.83427e-28
615 5 0.001 -0.00250007 0 -0.0385738 -2.7719e-25 0 -5.41749e-13 0 4.69745e-28
616 5 0.001 -0.00250007 0 -0.0379362 -2.7719e-25 0 7.14533e-12 0 1.13303e-27
764 6 0.001 0.00250007 0 -0.0392114 2.7719e-25 0 -1.88113e-12 0 1.83427e-28
765 6 0.001 0.00250007 0 -0.0385738 2.7719e-25 0 -5.41749e-13 0 4.69745e-28
766 6 0.001 0.00250007 0 -0.0379362 2.7719e-25 0 7.14533e-12 0 1.13303e-27
914 7 0.001 0.00749993 0 -0.0392114 -2.7719e-25 0 -1.88113e-12 0 1.83427e-28
915 7 0.001 0.00749993 0 -0.0385738 -2.7719e-25 0 -5.41749e-13 0 4.69745e-28
916 7 0.001 0.00749993 0 -0.0379362 -2.7719e-25 0 7.14533e-12 0 1.13303e-27
1064 8 0.001 0.0125001 0 -0.0392114 2.7719e-25 0 -1.88113e-12 0 1.83427e-28
1065 8 0.001 0.0125001 0 -0.0385738 2.7719e-25 0 -5.41749e-13 0 4.69745e-28
1066 8 0.001 0.0125001 0 -0.0379362 2.7719e-25 0 7.14533e-12 0 1.13303e-27
1214 9 0.001 0.0174999 0 -0.0392114 -2.7719e-25 0 -1.88113e-12 0 1.83427e-28
1215 9 0.001 0.0174999 0 -0.0385738 -2.7719e-25 0 -5.41749e-13 0 4.69745e-28
1216 9 0.001 0.0174999 0 -0.0379362 -2.7719e-25 0 7.14533e-12 0 1.13303e-27
1364 10 0.001 0.0224999 0 -0.0392114 -2.7719e-25 0 -1.88113e-12 0 1.83427e-28
1365 10 0.001 0.0224999 0 -0.0385738 -2.7719e-25 0 -5.41749e-13 0 4.69745e-28
1366 10 0.001 0.0224999 0 -0.0379362 -2.7719e-25 0 7.14533e-12 0 1.13303e-27
17 1 0.001 -0.0224999 0 -0.0372987 2.7719e-25 0 -5.34846e-12 0 8.73995e-28
18 1 0.001 -0.0224999 0 -0.0366611 2.7719e-25 0 2.04755e-12 0 8.99068e-29
167 2 0.001 -0.0174999 0 -0.0372987 2.7719e-25 0 -5.34846e-12 0 8.73995e-28
168 2 0.001 -0.0174999 0 -0.0366611 2.7719e-25 0 2.04755e-12 0 8.99068e-29
317 3 0.001 -0.0125001 0 -0.0372987 -2.7719e-25 0 -5.34846e-12 0 8.73995e-28
318 3 0.001 -0.0125001 0 -0.0366611 -2.7719e-25 0 2.04755e-12 0 8.99068e-29
467 4 0.001 -0.00750007 0 -0.0372987 -2.7719e-25 0 -5.34846e-12 0 8.73995e-28
468 4 0.001 -0.00750007 0 -0.0366611 -2.7719e-25 0 2.04755e-12 0 8.99068e-29
617 5 0.001 -0.00250007 0 -0.0372987 -2.7719e-25 0 -5.34846e-12 0 8.73995e-28
618 5 0.001 -0.00250007 0 -0.0366611 -2.7719e-25 0 2.04755e-12 0 8.99068e-29
767 6 0.001 0.00250007 0 -0.0372987 2.7719e-25 0 -5.34846e-12 0 8.73995e-28
768 6 0.001 0.00250007 0 -0.0366611 2.7719e-25 0 2.04755e-12 0 8.99068e-29
917 7 0.001 0.00749993 0 -0.0372987 -2.7719e-25 0 -5.34846e-12 0 8.73995e-28
918 7 0.001 0.00749993 0 -0.0366611 -2.7719e-25 0 2.04755e-12 0 8.99068e-29
1067 8 0.001 0.0125001 0 -0.0372987 2.7719e-25 0 -5.34846e-12 0 8.73995e-28
1068 8 0.001 0.0125001 0 -0.0366611 2.7719e-25 0 2.04755e-12 0 8.99068e-29
1217 9 0.001 0.0174999 0 -0.0372987 -2.7719e-25 0 -5.34846e-12 0 8.73995e-28
1218 9 0.001 0.0174999 0 -0.0366611 -2.7719e-25 0 2.04755e-12 0 8.99068e-29
1367 10 0.001 0.0224999 0 -0.0372987 -2.7719e-25 0 -5.34846e-12 0 8.73995e-28
1368 10 0.001 0.0224999 0 -0.0366611 -2.7719e-25 0 2.04755e-12 0 8.99068e-29
19 1 0.001 -0.0224999 0 -0.0360235 2.7719e-25 0 -2.25634e-12 0 1.06252e-28
20 1 0.001 -0.0224999 0 -0.0353859 2.7719e-25 0 1.2122e-12 0 4.6613e-29
169 2 0.001 -0.0174999 0 -0.0360235 2.7719e-25 0 -2.25634e-12 0 1.06252e-28
170 2 0.001 -0.0174999 0 -0.0353859 2.7719e-25 0 1.2122e-12 0 4.6613e-29
319 3 0.001 -0.0125001 0 -0.0360235 -2.7719e-25 0 -2.25634e-12 0 1.06252e-28
320 3 0.001 -0.0125001 0 -0.0353859 -2.7719e-25 0 1.2122e-12 0 4.6613e-29
469 4 0.001 -0.00750007 0 -0.0360235 -2.7719e-25 0 -2.25634e-12 0 1.06252e-28
470 4 0.001 -0.00750007 0 -0.0353859 -2.7719e-25 0 1.2122e-12 0 4.6613e-29
619 5 0.001 -0.00250007 0 -0.0360235 -2.7719e-25 0 -2.25634e-12 0 1.06252e-28
620 5 0.001 -0.00250007 0 -0.0353859 -2.7719e-25 0 1.2122e-12 0 4.6613e-29
769 6 0.001 0.00250007 0 -0.0360235 2.7719e-25 0 -2.25634e-12 0 1.06252e-28
770 6 0.001 0.00250007 0 -0.0353859 2.7719e-25 0 1.2122e-12 0 4.6613e-29
919 7 0.001 0.00749993 0 -0.0360235 -2.7719e-25 0 -2.25634e-12 0 1.06252e-28
920 7 0.001 0.00749993 0 -0.0353859 -2.7719e-25 0 1.2122e-12 0 4.6613e-29
1069 8 0.001 0.0125001 0 -0.0360235 2.7719e-25 0 -2.25634e-12 0 1.06252e-28
1070 8 0.001 0.0125001 0 -0.0353859 2.7719e-25 0 1.2122e-12 0 4.6613e-29
1219 9 0.001 0.0174999 0 -0.0360235 -2.7719e-25 0 -2.25634e-12 0 1.06252e-28
1220 9 0.001 0.0174999 0 -0.0353859 -2.7719e-25 0 1.2122e-12 0 4.6613e-29
1369 10 0.001 0.0224999 0 -0.0360235 -2.7719e-25 0 -2.25634e-12 0 1.06252e-28
1370 10 0.001 0.0224999 0 -0.0353859 -2.7719e-25 0 1.2122e-12 0 4.6613e-29
21 1 0.001 -0.0224999 0 -0.0347483 2.7719e-25 0 -2.71682e-12 0 2.71305e-28
22 1 0.001 -0.0224999 0 -0.0341107 2.7719e-25 0 5.55723e-12 0 6.45503e-28
23 1 0.001 -0.0224999 0 -0.0334732 2.7719e-25 0 -1.16855e-12 0 5.15384e-28
171 2 0.001 -0.0174999 0 -0.0347483 2.7719e-25 0 -2.71682e-12 0 2.71305e-28
172 2 0.001 -0.0174999 0 -0.0341107 2.7719e-25 0 5.55723e-12 0 6.45503e-28
173 2 0.001 -0.0174999 0 -0.0334732 2.7719e-25 0 -1.16855e-12 0 5.15384e-28
321 3 0.001 -0.0125001 0 -0.0347483 -2.7719e-25 0 -2.71682e-12 0 2.71305e-28
322 3 0.001 -0.0125001 0 -0.0341107 -2.7719e-25 0 5.55723e-12 0 6.45503e-28
323 3 0.001 -0.0125001 0 -0.0334732 -2.7719e-25 0 -1.16855e-12 0 5.15384e-28
471 4 0.001 -0.00750007 0 -0.0347483 -2.7719e-25 0 -2.71682e-12 0 2.71305e-28
472 4 0.001 -0.00750007 0 -0.0341107 -2.7719e-25 0 5.55723e-12 0 6.45503e-28
473 4 0.001 -0.00750007 0 -0.0334732 -2.7719e-25 0 -1.16855e-12 0 5.15384e-28
621 5 0.001 -0.00250007 0 -0.0347483 -2.7719e-25 0 -2.71682e-12 0 2.71305e-28
622 5 0.001 -0.00250007 0 -0.0341107 -2.7719e-25 0 5.55723e-12 0 6.45503e-28
623 5 0.001 -0.00250007 0 -0.0334732 -2.7719e-25 0 -1.16855e-12 0 5.15384e-28
771 6 0.001 0.00250007 0 -0.0347483 2.7719e-25 0 -2.71682e-12 0 2.71305e-28
772 6 0.001 0.00250007 0 -0.0341107 2.7719e-25 0 5.55723e-12 0 6.45503e-28
773 6 0.001 0.00250007 0 -0.0334732 2.7719e-25 0 -1.16855e-12 0 5.15384e-28
921 7 0.001 0.00749993 0 -0.0347483 -2.7719e-25 0 -2.71682e-12 0 2.71305e-28
922 7 0.001 0.00749993 0 -0.0341107 -2.7719e-25 0 5.55723e-12 0 6.45503e-28
923 7 0.001 0.00749993 0 -0.0334732 -2.7719e-25 0 -1.16855e-12 0 5.15384e-28
1071 8 0.001 0.0125001 0 -0.0347483 2.7719e-25 0 -2.71682e-12 0 2.71305e-28
1072 8 0.001 0.0125001 0 -0.0341107 2.7719e-25 0 5.55723e-12 0 6.45503e-28
1073 8 0.001 0.0125001 0 -0.0334732 2.7719e-25 0 -1.16855e-12 0 5.15384e-28
1221 9 0.001 0.0174999 0 -0.0347483 -2.7719e-25 0 -2.71682e-12 0 2.71305e-28
1222 9 0.001 0.0174999 0 -0.0341107 -2.7719e-25 0 5.55723e-12 0 6.45503e-28
1223 9 0.001 0.0174999 0 -0.0334732 -2.7719e-25 0 -1.16855e-12 0 5.15384e-28
1371 10 0.001 0.0224999 0 -0.0347483 -2.7719e-25 0 -2.71682e-12 0 2.71305e-28
1372 10 0.001 0.0224999 0 -0.0341107 -2.7719e-25 0 5.55723e-12 0 6.45503e-28
1373 10 0.001 0.0224999 0 -0.0334732 -2.7719e-25 0 -1.16855e-12 0 5.15384e-28
24 1 0.001 -0.0224999 0 -0.0328356 2.7719e-25 0 -4.84802e-12 0 5.16363e-28
25 1 0.001 -0.0224999 0 -0.032198 2.7719e-25 0 7.93789e-13 0 5.80311e-28
174 2 0.001 -0.0174999 0 -0.0328356 2.7719e-25 0 -4.84802e-12 0 5.16363e-28
175 2 0.001 -0.0174999 0 -0.032198 2.7719e-25 0 7.93789e-13 0 5.80311e-28
324 3 0.001 -0.0125001 0 -0.0328356 -2.7719e-25 0 -4.84802e-12 0 5.16363e-28
325 3 0.001 -0.0125001 0 -0.032198 -2.7719e-25 0 7.93789e-13 0 5.80311e-28
474 4 0.001 -0.00750007 0 -0.0328356 -2.7719e-25 0 -4.84802e-12 0 5.16363e-28
475 4 0.001 -0.00750007 0 -0.032198 -2.7719e-25 0 7.93789e-13 0 5.80311e-28
624 5 0.001 -0.00250007 0 -0.0328356 -2.7719e-25 0 -4.84802e-12 0 5.16363e-28
625 5 0.001 -0.00250007 0 -0.032198 -2.7719e-25 0 7.93789e-13 0 5.80311e-28
774 6 0.001 0.00250007 0 -0.0328356 2.7719e-25 0 -4.84802e-12 0 5.16363e-28
775 6 0.001 0.00250007 0 -0.032198 2.7719e-25 0 7.93789e-13 0 5.80311e-28
924 7 0.001 0.00749993 0 -0.0328356 -2.7719e-25 0 -4.84802e-12 0 5.16363e-28
925 7 0.001 0.00749993 0 -0.032198 -2.7719e-25 0 7.93789e-13 0 5.80311e-28
1074 8 0.001 0.0125001 0 -0.0328356 2.7719e-25 0 -4.84802e-12 0 5.16363e-28
1075 8 0.001 0.0125001 0 -0.032198 2.7719e-25 0 7.93789e-13 0 5.80311e-28
1224 9 0.001 0.0174999 0 -0.0328356 -2.7719e-25 0 -4.84802e-12 0 5.16363e-28
1225 9 0.001 0.0174999 0 -0.032198 -2.7719e-25 0 7.93789e-13 0 5.80311e-28
1374 10 0.001 0.0224999 0 -0.0328356 -2.7719e-25 0 -4.84802e-12 0 5.16363e-28
1375 10 0.001 0.0224999 0 -0.032198 -2.7719e-25 0 7.93789e-13 0 5.80311e-28
26 1 0.001 -0.0224999 0 -0.0315604 2.7719e-25 0 5.53734e-12 0 6.61655e-28
27 1 0.001 -0.0224999 0 -0.0309228 2.7719e-25 0 -5.39034e-12 0 6.35623e-28
176 2 0.001 -0.0174999 0 -0.0315604 2.7719e-25 0 5.53734e-12 0 6.61655e-28
177 2 0.001 -0.0174999 0 -0.0309228 2.7719e-25 0 -5.39034e-12 0 6.35623e-28
326 3 0.001 -0.0125001 0 -0.0315604 -2.7719e-25 0 5.53734e-12 0 6.61655e-28
327 3 0.001 -0.0125001 0 -0.0309228 -2.7719e-25 0 -5.39034e-12 0 6.35623e-28
476 4 0.001 -0.00750007 0 -0.0315604 -2.7719e-25 0 5.53734e-12 0 6.61655e-28
477 4 0.001 -0.00750007 0 -0.0309228 -2.7719e-25 0 -5.39034e-12 0 6.35623e-28
626 5 0.001 -0.00250007 0 -0.0315604 -2.7719e-25 0 5.53734e-12 0 6.61655e-28
627 5 0.001 -0.00250007 0 -0.0309228 -2.7719e-25 0 -5.39034e-12 0 6.35623e-28
776 6 0.001 0.00250007 0 -0.0315604 2.7719e-25 0 5.53734e-12 0 6.61655e-28
777 6 0.001 0.00250007 0 -0.0309228 2.7719e-25 0 -5.39034e-12 0 6.35623e-28
926 7 0.001 0.00749993 0 -0.0315604 -2.7719e-25 0 5.53734e-12 0 6.61655e-28
927 7 0.001 0.00749993 0 -0.0309228 -2.7719e-25 0 -5.39034e-12 0 6.35623e-28
1076 8 0.001 0.0125001 0 -0.0315604 2.7719e-25 0 5.53734e-12 0 6.61655e-28
1077 8 0.001 0.0125001 0 -0.0309228 2.7719e-25 0 -5.39034e-12 0 6.35623e-28
1226 9 0.001 0.0174999 0 -0.0315604 -2.7719e-25 0 5.53734e-12 0 6.61655e-28
1227 9 0.001 0.0174999 0 -0.0309228 -2.7719e-25 0 -5.39034e-12 0 6.35623e-28
1376 10 0.001 0.0224999 0 -0.0315604 -2.7719e-25 0 5.53734e-12 0 6.61655e-28
1377 10 0.001 0.0224999 0 -0.0309228 -2.7719e-25 0 -5.39034e-12 0 6.35623e-28
28 1 0.001 -0.0224999 0 -0.0302852 2.7719e-25 0 1.3577e-12 0 1.99037e-28
29 1 0.001 -0.0224999 0 -0.0296477 2.7719e-25 0 2.59111e-12 0 1.67566e-28
30 1 0.001 -0.0224999 0 -0.0290101 2.7719e-25 0 -3.82447e-12 0 3.0357e-28
178 2 0.001 -0.0174999 0 -0.0302852 2.7719e-25 0 1.3577e-12 0 1.99037e-28
179 2 0.001 -0.0174999 0 -0.0296477 2.7719e-25 0 2.59111e-12 0 1.67566e-28
180 2 0.001 -0.0174999 0 -0.0290101 2.7719e-25 0 -3.82447e-12 0 3.0357e-28
328 3 0.001 -0.0125001 0 -0.0302852 -2.7719e-25 0 1.3577e-12 0 1.99037e-28
329 3 0.001 -0.0125001 0 -0.0296477 -2.7719e-25 0 2.59111e-12 0 1.67566e-28
330 3 0.001 -0.0125001 0 -0.0290101 -2.7719e-25 0 -3.82447e-12 0 3.0357e-28
478 4 0.001 -0.00750007 0 -0.0302852 -2.7719e-25 0 1.3577e-12 0 1.99037e-28
479 4 0.001 -0.00750007 0 -0.0296477 -2.7719e-25 0 2.59111e-12 0 1.67566e-28
480 4 0.001 -0.00750007 0 -0.0290101 -2.7719e-25 0 -3.82447e-12 0 3.0357e-28
628 5 0.001 -0.00250007 0 -0.0302852 -2.7719e-25 0 1.3577e-12 0 1.99037e-28
629 5 0.001 -0.00250007 0 -0.0296477 -2.7719e-25 0 2.59111e-12 0 1.67566e-28
630 5 0.001 -0.00250007 0 -0.0290101 -2.7719e-25 0 -3.82447e-12 0 3.0357e-28
778 6 0.001 0.00250007 0 -0.0302852 2.7719e-25 0 1.3577e-12 0 1.99037e-28
779 6 0.001 0.00250007 0 -0.0296477 2.7719e-25 0 2.59111e-12 0 1.67566e-28
780 6 0.001 0.00250007 0 -0.0290101 2.7719e-25 0 -3.82447e-12 0 3.0357e-28
928 7 0.001 0.00749993 0 -0.0302852 -2.7719e-25 0 1.3577e-12 0 1.99037e-28
929 7 0.001 0.00749993 0 -0.0296477 -2.7719e-25 0 2.59111e-12 0 1.67566e-28
930 7 0.001 0.00749993 0 -0.0290101 -2.7719e-25 0 -3.82447e-12 0 3.0357e-28
1078 8 0.001 0.0125001 0 -0.0302852 2.7719e-25 0 1.3577e-12 0 1.99037e-28
1079 8 0.001 0.0125001 0 -0.0296477 2.7719e-25 0 2.59111e-12 0 1.67566e-28
1080 8 0.001 0.0125001 0 -0.0290101 2.7719e-25 0 -3.82447e-12 0 3.0357e-28
1228 9 0.001 0.0174999 0 -0.0302852 -2.7719e-25 0 1.3577e-12 0 1.99037e-28
1229 9 0.001 0.0174999 0 -0.0296477 -2.7719e-25 0 2.59111e-12 0 1.67566e-28
1230 9 0.001 0.0174999 0 -0.0290101 -2.7719e-25 0 -3.82447e-12 0 3.0357e-28
1378 10 0.001 0.0224999 0 -0.0302852 -2.7719e-25 0 1.3577e-12 0 1.99037e-28
1379 10 0.001 0.0224999 0 -0.0296477 -2.7719e-25 0 2.59111e-12 0 1.67566e-28
1380 10 0.001 0.0224999 0 -0.0290101 -2.7719e-25 0 -3.82447e-12 0 3.0357e-28
31 1 0.001 -0.0224999 0 -0.0283725 2.7719e-25 0 2.56983e-12 0 1.73281e-28
32 1 0.001 -0.0224999 0 -0.0277349 2.7719e-25 0 -8.35217e-13 0 1.80564e-29
181 2 0.001 -0.0174999 0 -0.0283725 2.7719e-25 0 2.56983e-12 0 1.73281e-28
182 2 0.001 -0.0174999 0 -0.0277349 2.7719e-25 0 -8.35217e-13 0 1.80564e-29
331 3 0.001 -0.0125001 0 -0.0283725 -2.7719e-25 0 2.56983e-12 0 1.73281e-28
332 3 0.001 -0.0125001 0 -0.0277349 -2.7719e-25 0 -8.35217e-13 0 1.80564e-29
481 4 0.001 -0.00750007 0 -0.0283725 -2.7719e-25 0 2.56983e-12 0 1.73281e-28
482 4 0.001 -0.00750007 0 -0.0277349 -2.7719e-25 0 -8.35217e-13 0 1.80564e-29
631 5 0.001 -0.00250007 0 -0.0283725 -2.7719e-25 0 2.56983e-12 0 1.73281e-28
632 5 0.001 -0.00250007 0 -0.0277349 -2.7719e-25 0 -8.35217e-13 0 1.80564e-29
781 6 0.001 0.00250007 0 -0.0283725 2.7719e-25 0 2.56983e-12 0 1.73281e-28
782 6 0.001 0.00250007 0 -0.0277349 2.7719e-25 0 -8.35217e-13 0 1.80564e-29
931 7 0.001 0.00749993 0 -0.0283725 -2.7719e-25 0 2.56983e-12 0 1.73281e-28
932 7 0.001 0.00749993 0 -0.0277349 -2.7719e-25 0 -8.35217e-13 0 1.80564e-29
1081 8 0.001 0.0125001 0 -0.0283725 2.7719e-25 0 2.56983e-12 0 1.73281e-28
1082 8 0.001 0.0125001 0 -0.0277349 2.7719e-25 0 -8.35217e-13 0 1.80564e-29
1231 9 0.001 0.0174999 0 -0.0283725 -2.7719e-25 0 2.56983e-12 0 1.73281e-28
1232 9 0.001 0.0174999 0 -0.0277349 -2.7719e-25 0 -8.35217e-13 0 1.80564e-29
1381 10 0.001 0.0224999 0 -0.0283725 -2.7719e-25 0 2.56983e-12 0 1.73281e-28
1382 10 0.001 0.0224999 0 -0.0277349 -2.7719e-25 0 -8.35217e-13 0 1.80564e-29
33 1 0.001 -0.0224999 0 -0.0270973 2.7719e-25 0 2.21492e-12 0 1.68551e-28
34 1 0.001 -0.0224999 0 -0.0264597 2.7719e-25 0 -4.20015e-12 0 3.66879e-28
35 1 0.001 -0.0224999 0 -0.0258221 2.7719e-25 0 -1.58717e-12 0 7.9455e-28
183 2 0.001 -0.0174999 0 -0.0270973 2.7719e-25 0 2.21492e-12 0 1.68551e-28
184 2 0.001 -0.0174999 0 -0.0264597 2.7719e-25 0 -4.20015e-12 0 3.66879e-28
185 2 0.001 -0.0174999 0 -0.0258221 2.7719e-25 0 -1.58717e-12 0 7.9455e-28
333 3 0.001 -0.0125001 0 -0.0270973 -2.7719e-25 0 2.21492e-12 0 1.68551e-28
334 3 0.001 -0.0125001 0 -0.0264597 -2.7719e-25 0 -4.20015e-12 0 3.66879e-28
335 3 0.001 -0.0125001 0 -0.0258221 -2.7719e-25 0 -1.58717e-12 0 7.9455e-28
483 4 0.001 -0.00750007 0 -0.0270973 -2.7719e-25 0 2.21492e-12 0 1.68551e-28
484 4 0.001 -0.00750007 0 -0.0264597 -2.7719e-25 0 -4.20015e-12 0 3.66879e-28
485 4 0.001 -0.00750007 0 -0.0258221 -2.7719e-25 0 -1.58717e-12 0 7.9455e-28
633 5 0.001 -0.00250007 0 -0.0270973 -2.7719e-25 0 2.21492e-12 0 1.68551e-28
634 5 0.001 -0.00250007 0 -0.0264597 -2.7719e-25 0 -4.20015e-12 0 3.66879e-28
635 5 0.001 -0.00250007 0 -0.0258221 -2.7719e-25 0 -1.58717e-12 0 7.9455e-28
783 6 0.001 0.00250007 0 -0.0270973 2.7719e-25 0 2.21492e-12 0 1.68551e-28
784 6 0.001 0.00250007 0 -0.0264597 2.7719e-25 0 -4.20015e-12 0 3.66879e-28
785 6 0.001 0.00250007 0 -0.0258221 2.7719e-25 0 -1.58717e-12 0 7.9455e-28
933 7 0.001 0.00749993 0 -0.0270973 -2.7719e-25 0 2.21492e-12 0 1.68551e-28
934 7 0.001 0.00749993 0 -0.0264597 -2.7719e-25 0 -4.20015e-12 0 3.66879e-28
935 7 0.001 0.00749993 0 -0.0258221 -2.7719e-25 0 -1.58717e-12 0 7.9455e-28
1083 8 0.001 0.0125001 0 -0.0270973 2.7719e-25 0 2.21492e-12 0 1.68551e-28
1084 8 0.001 0.0125001 0 -0.0264597 2.7719e-25 0 -4.20015e-12 0 3.66879e-28
1085 8 0.001 0.0125001 0 -0.0258221 2.7719e-25 0 -1.58717e-12 0 7.9455e-28
1233 9 0.001 0.0174999 0 -0.0270973 -2.7719e-25 0 2.21492e-12 0 1.68551e-28
1234 9 0.001 0.0174999 0 -0.0264597 -2.7719e-25 0 -4.20015e-12 0 3.66879e-28
1235 9 0.001 0.0174999 0 -0.0258221 -2.7719e-25 0 -1.58717e-12 0 7.9455e-28
1383 10 0.001 0.0224999 0 -0.0270973 -2.7719e-25 0 2.21492e-12 0 1.68551e-28
1384 10 0.001 0.0224999 0 -0.0264597 -2.7719e-25 0 -4.20015e-12 0 3.66879e-28
1385 10 0.001 0.0224999 0 -0.0258221 -2.7719e-25 0 -1.58717e-12 0 7.9455e-28
36 1 0.001 -0.0224999 0 -0.0251846 2.7719e-25 0 9.13097e-12 0 1.78128e-27
37 1 0.001 -0.0224999 0 -0.024547 2.7719e-25 0 -6.7909e-12 0 1.27343e-27
186 2 0.001 -0.0174999 0 -0.0251846 2.7719e-25 0 9.13097e-12 0 1.78128e-27
187 2 0.001 -0.0174999 0 -0.024547 2.7719e-25 0 -6.7909e-12 0 1.27343e-27
336 3 0.001 -0.0125001 0 -0.0251846 -2.7719e-25 0 9.13097e-12 0 1.78128e-27
337 3 0.001 -0.0125001 0 -0.024547 -2.7719e-25 0 -6.7909e-12 0 1.27343e-27
486 4 0.001 -0.00750007 0 -0.0251846 -2.7719e-25 0 9.13097e-12 0 1.78128e-27
487 4 0.001 -0.00750007 0 -0.024547 -2.7719e-25 0 -6.7909e-12 0 1.27343e-27
636 5 0.001 -0.00250007 0 -0.0251846 -2.7719e-25 0 9.13097e-12 0 1.78128e-27
637 5 0.001 -0.00250007 0 -0.024547 -2.7719e-25 0 -6.7909e-12 0 1.27343e-27
786 6 0.001 0.00250007 0 -0.0251846 2.7719e-25 0 9.13097e-12 0 1.78128e-27
787 6 0.001 0.00250007 0 -0.024547 2.7719e-25 0 -6.7909e-12 0 1.27343e-27
936 7 0.001 0.00749993 0 -0.0251846 -2.7719e-25 0 9.13097e-12 0 1.78128e-27
937 7 0.001 0.00749993 0 -0.024547 -2.7719e-25 0 -6.7909e-12 0 1.27343e-27
1086 8 0.001 0.0125001 0 -0.0251846 2.7719e-25 0 9.13097e-12 0 1.78128e-27
1087 8 0.001 0.0125001 0 -0.024547 2.7719e-25 0 -6.7909e-12 0 1.27343e-27
1236 9 0.001 0.0174999 0 -0.0251846 -2.7719e-25 0 9.13097e-12 0 1.78128e-27
1237 9 0.001 0.0174999 0 -0.024547 -2.7719e-25 0 -6.7909e-12 0 1.27343e-27
1386 10 0.001 0.0224999 0 -0.0251846 -2.7719e-25 0 9.13097e-12 0 1.78128e-27
1387 10 0.001 0.0224999 0 -0.024547 -2.7719e-25 0 -6.7909e-12 0 1.27343e-27
38 1 0.001 -0.0224999 0 -0.0239094 2.7719e-25 0 4.70222e-12 0 5.27059e-28
39 1 0.001 -0.0224999 0 -0.0232718 2.7719e-25 0 -7.27297e-12 0 1.10931e-27
188 2 0.001 -0.0174999 0 -0.0239094 2.7719e-25 0 4.70222e-12 0 5.27059e-28
189 2 0.001 -0.0174999 0 -0.0232718 2.7719e-25 0 -7.27297e-12 0 1.10931e-27
338 3 0.001 -0.0125001 0 -0.0239094 -2.7719e-25 0 4.70222e-12 0 5.27059e-28
339 3 0.001 -0.0125001 0 -0.0232718 -2.7719e-25 0 -7.27297e-12 0 1.10931e-27
488 4 0.001 -0.00750007 0 -0.0239094 -2.7719e-25 0 4.70222e-12 0 5.27059e-28
489 4 0.001 -0.00750007 0 -0.0232718 -2.7719e-25 0 -7.27297e-12 0 1.10931e-27
638 5 0.001 -0.00250007 0 -0.0239094 -2.7719e-25 0 4.70222e-12 0 5.27059e-28
639 5 0.001 -0.00250007 0 -0.0232718 -2.7719e-25 0 -7.27297e-12 0 1.10931e-27
788 6 0.001 0.00250007 0 -0.0239094 2.7719e-25 0 4.70222e-12 0 5.27059e-28
789 6 0.001 0.00250007 0 -0.0232718 2.7719e-25 0 -7.27297e-12 0 1.10931e-27
938 7 0.001 0.00749993 0 -0.0239094 -2.7719e-25 0 4.70222e-12 0 5.27059e-28
939 7 0.001 0.00749993 0 -0.0232718 -2.7719e-25 0 -7.27297e-12 0 1.10931e-27
1088 8 0.001 0.0125001 0 -0.0239094 2.7719e-25 0 4.70222e-12 0 5.27059e-28
1089 8 0.001 0.0125001 0 -0.0232718 2.7719e-25 0 -7.27297e-12 0 1.10931e-27
1238 9 0.001 0.0174999 0 -0.0239094 -2.7719e-25 0 4.70222e-12 0 5.27059e-28
1239 9 0.001 0.0174999 0 -0.0232718 -2.7719e-25 0 -7.27297e-12 0 1.10931e-27
1388 10 0.001 0.0224999 0 -0.0239094 -2.7719e-25 0 4.70222e-12 0 5.27059e-28
1389 10 0.001 0.0224999 0 -0.0232718 -2.7719e-25 0 -7.27297e-12 0 1.10931e-27
40 1 0.001 -0.0224999 0 -0.0226342 2.7719e-25 0 6.28911e-12 0 8.83737e-28