ITEM: TIMESTEP
3700000
ITEM: NUMBER OF ATOMS
1500
ITEM: BOX BOUNDS ff ff ff
-2.5000000000000001e-02 2.5000000000000001e-02
-5.0000000000000001e-03 5.0000000000000001e-03
-5.0000000000000003e-02 5.0000000000000003e-02
ITEM: ATOMS id type radius x y z fx fy fz c_bendingE c_stretchingE
1 1 0.001 -0.0225 0 -0.0475 2.7719e-25 0 3.04865e-12 0 3.85836e-28
151 2 0.001 -0.0175 0 -0.0475 2.7719e-25 0 3.04865e-12 0 3.85836e-28
301 3 0.001 -0.0125 0 -0.0475 -2.7719e-25 0 3.04865e-12 0 3.85836e-28
451 4 0.001 -0.00750004 0 -0.0475 -2.7719e-25 0 3.04865e-12 0 3.85836e-28
601 5 0.001 -0.00250004 0 -0.0475 -2.7719e-25 0 3.04865e-12 0 3.85836e-28
751 6 0.001 0.00250004 0 -0.0475 2.7719e-25 0 3.04865e-12 0 3.85836e-28
901 7 0.001 0.00749996 0 -0.0475 -2.7719e-25 0 3.04865e-12 0 3.85836e-28
1051 8 0.001 0.0125 0 -0.0475 2.7719e-25 0 3.04865e-12 0 3.85836e-28
1201 9 0.001 0.0175 0 -0.0475 -2.7719e-25 0 3.04865e-12 0 3.85836e-28
1351 10 0.001 0.0225 0 -0.0475 -2.7719e-25 0 3.04865e-12 0 3.85836e-28
2 1 0.001 -0.0225 0 -0.0468624 2.7719e-25 0 -7.48053e-12 0 1.20112e-27
3 1 0.001 -0.0225 0 -0.0462248 2.7719e-25 0 1.11991e-11 0 2.71677e-27
4 1 0.001 -0.0225 0 -0.0455872 2.7719e-25 0 -1.00282e-11 0 2.34308e-27
152 2 0.001 -0.0175 0 -0.0468624 2.7719e-25 0 -7.48053e-12 0 1.20112e-27
153 2 0.001 -0.0175 0 -0.0462248 2.7719e-25 0 1.11991e-11 0 2.71677e-27
154 2 0.001 -0.0175 0 -0.0455872 2.7719e-25 0 -1.00282e-11 0 2.34308e-27
302 3 0.001 -0.0125 0 -0.0468624 -2.7719e-25 0 -7.48053e-12 0 1.20112e-27
303 3 0.001 -0.0125 0 -0.0462248 -2.7719e-25 0 1.11991e-11 0 2.71677e-27
304 3 0.001 -0.0125 0 -0.0455872 -2.7719e-25 0 -1.00282e-11 0 2.34308e-27
452 4 0.001 -0.00750004 0 -0.0468624 -2.7719e-25 0 -7.48053e-12 0 1.20112e-27
453 4 0.001 -0.00750004 0 -0.0462248 -2.7719e-25 0 1.11991e-11 0 2.71677e-27
454 4 0.001 -0.00750004 0 -0.0455872 -2.7719e-25 0 -1.00282e-11 0 2.34308e-27
602 5 0.001 -0.00250004 0 -0.0468624 -2.7719e-25 0 -7.48053e-12 0 1.20112e-27
603 5 0.001 -0.00250004 0 -0.0462248 -2.7719e-25 0 1.11991e-11 0 2.71677e-27
604 5 0.001 -0.00250004 0 -0.0455872 -2.7719e-25 0 -1.00282e-11 0 2.34308e-27
752 6 0.001 0.00250004 0 -0.0468624 2.7719e-25 0 -7.48053e-12 0 1.20112e-27
753 6 0.001 0.00250004 0 -0.0462248 2.7719e-25 0 1.11991e-11 0 2.71677e-27
754 6 0.001 0.00250004 0 -0.0455872 2.7719e-25 0 -1.00282e-11 0 2.34308e-27
902 7 0.001 0.00749996 0 -0.0468624 -2.7719e-25 0 -7.48053e-12 0 1.20112e-27
903 7 0.001 0.00749996 0 -0.0462248 -2.7719e-25 0 1.11991e-11 0 2.71677e-27
904 7 0.001 0.00749996 0 -0.0455872 -2.7719e-25 0 -1.00282e-11 0 2.34308e-27
1052 8 0.001 0.0125 0 -0.0468624 2.7719e-25 0 -7.48053e-12 0 1.20112e-27
1053 8 0.001 0.0125 0 -0.0462248 2.7719e-25 0 1.11991e-11 0 2.71677e-27
1054 8 0.001 0.0125 0 -0.0455872 2.7719e-25 0 -1.00282e-11 0 2.34308e-27
1202 9 0.001 0.0175 0 -0.0468624 -2.7719e-25 0 -7.48053e-12 0 1.20112e-27
1203 9 0.001 0.0175 0 -0.0462248 -2.7719e-25 0 1.11991e-11 0 2.71677e-27
1204 9 0.001 0.0175 0 -0.0455872 -2.7719e-25 0 -1.00282e-11 0 2.34308e-27
1352 10 0.001 0.0225 0 -0.0468624 -2.7719e-25 0 -7.48053e-12 0 1.20112e-27
1353 10 0.001 0.0225 0 -0.0462248 -2.7719e-25 0 1.11991e-11 0 2.71677e-27
1354 10 0.001 0.0225 0 -0.0455872 -2.7719e-25 0 -1.00282e-11 0 2.34308e-27
5 1 0.001 -0.0225 0 -0.0449497 2.7719e-25 0 5.7246e-12 0 6.93554e-28
6 1 0.001 -0.0225 0 -0.0443121 2.7719e-25 0 -6.2685e-12 0 8.52916e-28
155 2 0.001 -0.0175 0 -0.0449497 2.7719e-25 0 5.7246e-12 0 6.93554e-28
156 2 0.001 -0.0175 0 -0.0443121 2.7719e-25 0 -6.2685e-12 0 8.52916e-28
305 3 0.001 -0.0125 0 -0.0449497 -2.7719e-25 0 5.7246e-12 0 6.93554e-28
306 3 0.001 -0.0125 0 -0.0443121 -2.7719e-25 0 -6.2685e-12 0 8.52916e-28
455 4 0.001 -0.00750004 0 -0.0449497 -2.7719e-25 0 5.7246e-12 0 6.93554e-28
456 4 0.001 -0.00750004 0 -0.0443121 -2.7719e-25 0 -6.2685e-12 0 8.52916e-28
605 5 0.001 -0.00250004 0 -0.0449497 -2.7719e-25 0 5.7246e-12 0 6.93554e-28
606 5 0.001 -0.00250004 0 -0.0443121 -2.7719e-25 0 -6.2685e-12 0 8.52916e-28
755 6 0.001 0.00250004 0 -0.0449497 2.7719e-25 0 5.7246e-12 0 6.93554e-28
756 6 0.001 0.00250004 0 -0.0443121 2.7719e-25 0 -6.2685e-12 0 8.52916e-28
905 7 0.001 0.00749996 0 -0.0449497 -2.7719e-25 0 5.7246e-12 0 6.93554e-28
906 7 0.001 0.00749996 0 -0.0443121 -2.7719e-25 0 -6.2685e-12 0 8.52916e-28
1055 8 0.001 0.0125 0 -0.0449497 2.7719e-25 0 5.7246e-12 0 6.93554e-28
1056 8 0.001 0.0125 0 -0.0443121 2.7719e-25 0 -6.2685e-12 0 8.52916e-28
1205 9 0.001 0.0175 0 -0.0449497 -2.7719e-25 0 5.7246e-12 0 6.93554e-28
1206 9 0.001 0.0175 0 -0.0443121 -2.7719e-25 0 -6.2685e-12 0 8.52916e-28
1355 10 0.001 0.0225 0 -0.0449497 -2.7719e-25 0 5.7246e-12 0 6.93554e-28
1356 10 0.001 0.0225 0 -0.0443121 -2.7719e-25 0 -6.2685e-12 0 8.52916e-28
7 1 0.001 -0.0225 0 -0.0436745 2.7719e-25 0 6.72819e-12 0 9.55714e-28
8 1 0.001 -0.0225 0 -0.0430369 2.7719e-25 0 -5.39e-12 0 6.07515e-28
157 2 0.001 -0.0175 0 -0.0436745 2.7719e-25 0 6.72819e-12 0 9.55714e-28
158 2 0.001 -0.0175 0 -0.0430369 2.7719e-25 0 -5.39e-12 0 6.07515e-28
307 3 0.001 -0.0125 0 -0.0436745 -2.7719e-25 0 6.72819e-12 0 9.55714e-28
308 3 0.001 -0.0125 0 -0.0430369 -2.7719e-25 0 -5.39e-12 0 6.07515e-28
457 4 0.001 -0.00750004 0 -0.0436745 -2.7719e-25 0 6.72819e-12 0 9.55714e-28
458 4 0.001 -0.00750004 0 -0.0430369 -2.7719e-25 0 -5.39e-12 0 6.07515e-28
607 5 0.001 -0.00250004 0 -0.0436745 -2.7719e-25 0 6.72819e-12 0 9.55714e-28
608 5 0.001 -0.00250004 0 -0.0430369 -2.7719e-25 0 -5.39e-12 0 6.07515e-28
757 6 0.001 0.00250004 0 -0.0436745 2.7719e-25 0 6.72819e-12 0 9.55714e-28
758 6 0.001 0.00250004 0 -0.0430369 2.7719e-25 0 -5.39e-12 0 6.07515e-28
907 7 0.001 0.00749996 0 -0.0436745 -2.7719e-25 0 6.72819e-12 0 9.55714e-28
908 7 0.001 0.00749996 0 -0.0430369 -2.7719e-25 0 -5.39e-12 0 6.07515e-28
1057 8 0.001 0.0125 0 -0.0436745 2.7719e-25 0 6.72819e-12 0 9.55714e-28
1058 8 0.001 0.0125 0 -0.0430369 2.7719e-25 0 -5.39e-12 0 6.07515e-28
1207 9 0.001 0.0175 0 -0.0436745 -2.7719e-25 0 6.72819e-12 0 9.55714e-28
1208 9 0.001 0.0175 0 -0.0430369 -2.7719e-25 0 -5.39e-12 0 6.07515e-28
1357 10 0.001 0.0225 0 -0.0436745 -2.7719e-25 0 6.72819e-12 0 9.55714e-28
1358 10 0.001 0.0225 0 -0.0430369 -2.7719e-25 0 -5.39e-12 0 6.07515e-28
9 1 0.001 -0.0225 0 -0.0423993 2.7719e-25 0 5.80844e-12 0 7.16191e-28
10 1 0.001 -0.0225 0 -0.0417617 2.7719e-25 0 -6.93856e-12 0 1.0002e-27
11 1 0.001 -0.0225 0 -0.0411242 2.7719e-25 0 8.5266e-12 0 1.5454e-27
159 2 0.001 -0.0175 0 -0.0423993 2.7719e-25 0 5.80844e-12 0 7.16191e-28
160 2 0.001 -0.0175 0 -0.0417617 2.7719e-25 0 -6.93856e-12 0 1.0002e-27
161 2 0.001 -0.0175 0 -0.0411242 2.7719e-25 0 8.5266e-12 0 1.5454e-27
309 3 0.001 -0.0125 0 -0.0423993 -2.7719e-25 0 5.80844e-12 0 7.16191e-28
310 3 0.001 -0.0125 0 -0.0417617 -2.7719e-25 0 -6.93856e-12 0 1.0002e-27
311 3 0.001 -0.0125 0 -0.0411242 -2.7719e-25 0 8.5266e-12 0 1.5454e-27
459 4 0.001 -0.00750004 0 -0.0423993 -2.7719e-25 0 5.80844e-12 0 7.16191e-28
460 4 0.001 -0.00750004 0 -0.0417617 -2.7719e-25 0 -6.93856e-12 0 1.0002e-27
461 4 0.001 -0.00750004 0 -0.0411242 -2.7719e-25 0 8.5266e-12 0 1.5454e-27
609 5 0.001 -0.00250004 0 -0.0423993 -2.7719e-25 0 5.80844e-12 0 7.16191e-28
610 5 0.001 -0.00250004 0 -0.0417617 -2.7719e-25 0 -6.93856e-12 0 1.0002e-27
611 5 0.001 -0.00250004 0 -0.0411242 -2.7719e-25 0 8.5266e-12 0 1.5454e-27
759 6 0.001 0.00250004 0 -0.0423993 2.7719e-25 0 5.80844e-12 0 7.16191e-28
760 6 0.001 0.00250004 0 -0.0417617 2.7719e-25 0 -6.93856e-12 0 1.0002e-27
761 6 0.001 0.00250004 0 -0.0411242 2.7719e-25 0 8.5266e-12 0 1.5454e-27
909 7 0.001 0.00749996 0 -0.0423993 -2.7719e-25 0 5.80844e-12 0 7.16191e-28
910 7 0.001 0.00749996 0 -0.0417617 -2.7719e-25 0 -6.93856e-12 0 1.0002e-27
911 7 0.001 0.00749996 0 -0.0411242 -2.7719e-25 0 8.5266e-12 0 1.5454e-27
1059 8 0.001 0.0125 0 -0.0423993 2.7719e-25 0 5.80844e-12 0 7.16191e-28
1060 8 0.001 0.0125 0 -0.0417617 2.7719e-25 0 -6.93856e-12 0 1.0002e-27
1061 8 0.001 0.0125 0 -0.0411242 2.7719e-25 0 8.5266e-12 0 1.5454e-27
1209 9 0.001 0.0175 0 -0.0423993 -2.7719e-25 0 5.80844e-12 0 7.16191e-28
1210 9 0.001 0.0175 0 -0.0417617 -2.7719e-25 0 -6.93856e-12 0 1.0002e-27
1211 9 0.001 0.0175 0 -0.0411242 -2.7719e-25 0 8.5266e-12 0 1.5454e-27
1359 10 0.001 0.0225 0 -0.0423993 -2.7719e-25 0 5.80844e-12 0 7.16191e-28
1360 10 0.001 0.0225 0 -0.0417617 -2.7719e-25 0 -6.93856e-12 0 1.0002e-27
1361 10 0.001 0.0225 0 -0.0411242 -2.7719e-25 0 8.5266e-12 0 1.5454e-27
12 1 0.001 -0.0225 0 -0.0404866 2.7719e-25 0 -6.14404e-12 0 1.0698e-27
13 1 0.001 -0.0225 0 -0.039849 2.7719e-25 0 -3.00901e-12 0 8.01385e-28
162 2 0.001 -0.0175 0 -0.0404866 2.7719e-25 0 -6.14404e-12 0 1.0698e-27
163 2 0.001 -0.0175 0 -0.039849 2.7719e-25 0 -3.00901e-12 0 8.01385e-28
312 3 0.001 -0.0125 0 -0.0404866 -2.7719e-25 0 -6.14404e-12 0 1.0698e-27
313 3 0.001 -0.0125 0 -0.039849 -2.7719e-25 0 -3.00901e-12 0 8.01385e-28
462 4 0.001 -0.00750004 0 -0.0404866 -2.7719e-25 0 -6.14404e-12 0 1.0698e-27
463 4 0.001 -0.00750004 0 -0.039849 -2.7719e-25 0 -3.00901e-12 0 8.01385e-28
612 5 0.001 -0.00250004 0 -0.0404866 -2.7719e-25 0 -6.14404e-12 0 1.0698e-27
613 5 0.001 -0.00250004 0 -0.039849 -2.7719e-25 0 -3.00901e-12 0 8.01385e-28
762 6 0.001 0.00250004 0 -0.0404866 2.7719e-25 0 -6.14404e-12 0 1.0698e-27
763 6 0.001 0.00250004 0 -0.039849 2.7719e-25 0 -3.00901e-12 0 8.01385e-28
912 7 0.001 0.00749996 0 -0.0404866 -2.7719e-25 0 -6.14404e-12 0 1.0698e-27
913 7 0.001 0.00749996 0 -0.039849 -2.7719e-25 0 -3.00901e-12 0 8.01385e-28
1062 8 0.001 0.0125 0 -0.0404866 2.7719e-25 0 -6.14404e-12 0 1.0698e-27
1063 8 0.001 0.0125 0 -0.039849 2.7719e-25 0 -3.00901e-12 0 8.01385e-28
1212 9 0.001 0.0175 0 -0.0404866 -2.7719e-25 0 -6.14404e-12 0 1.0698e-27
1213 9 0.001 0.0175 0 -0.039849 -2.7719e-25 0 -3.00901e-12 0 8.01385e-28
1362 10 0.001 0.0225 0 -0.0404866 -2.7719e-25 0 -6.14404e-12 0 1.0698e-27
1363 10 0.001 0.0225 0 -0.039849 -2.7719e-25 0 -3.00901e-12 0 8.01385e-28
14 1 0.001 -0.0225 0 -0.0392114 2.7719e-25 0 1.01965e-11 0 2.22172e-27
15 1 0.001 -0.0225 0 -0.0385738 2.7719e-25 0 -1.08223e-11 0 2.4578e-27
16 1 0.001 -0.0225 0 -0.0379362 2.7719e-25 0 5.13988e-12 0 9.798e-28
164 2 0.001 -0.0175 0 -0.0392114 2.7719e-25 0 1.01965e-11 0 2.22172e-27
165 2 0.001 -0.0175 0 -0.0385738 2.7719e-25 0 -1.08223e-11 0 2.4578e-27
166 2 0.001 -0.0175 0 -0.0379362 2.7719e-25 0 5.13988e-12 0 9.798e-28
314 3 0.001 -0.0125 0 -0.0392114 -2.7719e-25 0 1.01965e-11 0 2.22172e-27
315 3 0.001 -0.0125 0 -0.0385738 -2.7719e-25 0 -1.08223e-11 0 2.4578e-27
316 3 0.001 -0.0125 0 -0.0379362 -2.7719e-25 0 5.13988e-12 0 9.798e-28
464 4 0.001 -0.00750004 0 -0.0392114 -2.7719e-25 0 1.01965e-11 0 2.22172e-27
465 4 0.001 -0.00750004 0 -0.0385738 -2.7719e-25 0 -1.08223e-11 0 2.4578e-27
466 4 0.001 -0.00750004 0 -0.0379362 -2.7719e-25 0 5.13988e-12 0 9.798e-28
614 5 0.001 -0.00250004 0 -0.0392114 -2.7719e-25 0 1.01965e-11 0 2.22172e-27
615 5 0.001 -0.00250004 0 -0.0385738 -2.7719e-25 0 -1.08223e-11 0 2.4578e-27
616 5 0.001 -0.00250004 0 -0.0379362 -2.7719e-25 0 5.13988e-12 0 9.798e-28
764 6 0.001 0.00250004 0 -0.0392114 2.7719e-25 0 1.01965e-11 0 2.22172e-27
765 6 0.001 0.00250004 0 -0.0385738 2.7719e-25 0 -1.08223e-11 0 2.4578e-27
766 6 0.001 0.00250004 0 -0.0379362 2.7719e-25 0 5.13988e-12 0 9.798e-28
914 7 0.001 0.00749996 0 -0.0392114 -2.7719e-25 0 1.01965e-11 0 2.22172e-27
915 7 0.001 0.00749996 0 -0.0385738 -2.7719e-25 0 -1.08223e-11 0 2.4578e-27
916 7 0.001 0.00749996 0 -0.0379362 -2.7719e-25 0 5.13988e-12 0 9.798e-28
1064 8 0.001 0.0125 0 -0.0392114 2.7719e-25 0 1.01965e-11 0 2.22172e-27
1065 8 0.001 0.0125 0 -0.0385738 2.7719e-25 0 -1.08223e-11 0 2.4578e-27
1066 8 0.001 0.0125 0 -0.0379362 2.7719e-25 0 5.13988e-12 0 9.798e-28
1214 9 0.001 0.0175 0 -0.0392114 -2.7719e-25 0 1.01965e-11 0 2.22172e-27
1215 9 0.001 0.0175 0 -0.0385738 -2.7719e-25 0 -1.08223e-11 0 2.4578e-27
1216 9 0.001 0.0175 0 -0.0379362 -2.7719e-25 0 5.13988e-12 0 9.798e-28
1364 10 0.001 0.0225 0 -0.0392114 -2.7719e-25 0 1.01965e-11 0 2.22172e-27
1365 10 0.001 0.0225 0 -0.0385738 -2.7719e-25 0 -1.08223e-11 0 2.4578e-27
1366 10 0.001 0.0225 0 -0.0379362 -2.7719e-25 0 5.13988e-12 0 9.798e-28
17 1 0.001 -0.0225 0 -0.0372987 2.7719e-25 0 -2.38283e-12 0 1.85085e-28
18 1 0.001 -0.0225 0 -0.0366611 2.7719e-25 0 2.80167e-12 0 2.02416e-28
167 2 0.001 -0.0175 0 -0.0372987 2.7719e-25 0 -2.38283e-12 0 1.85085e-28
168 2 0.001 -0.0175 0 -0.0366611 2.7719e-25 0 2.80167e-12 0 2.02416e-28
317 3 0.001 -0.0125 0 -0.0372987 -2.7719e-25 0 -2.38283e-12 0 1.85085e-28
318 3 0.001 -0.0125 0 -0.0366611 -2.7719e-25 0 2.80167e-12 0 2.02416e-28
467 4 0.001 -0.00750004 0 -0.0372987 -2.7719e-25 0 -2.38283e-12 0 1.85085e-28
468 4 0.001 -0.00750004 0 -0.0366611 -2.7719e-25 0 2.80167e-12 0 2.02416e-28
617 5 0.001 -0.00250004 0 -0.0372987 -2.7719e-25 0 -2.38283e-12 0 1.85085e-28
618 5 0.001 -0.00250004 0 -0.0366611 -2.7719e-25 0 2.80167e-12 0 2.02416e-28
767 6 0.001 0.00250004 0 -0.0372987 2.7719e-25 0 -2.38283e-12 0 1.85085e-28
768 6 0.001 0.00250004 0 -0.0366611 2.7719e-25 0 2.80167e-12 0 2.02416e-28
917 7 0.001 0.00749996 0 -0.0372987 -2.7719e-25 0 -2.38283e-12 0 1.85085e-28
918 7 0.001 0.00749996 0 -0.0366611 -2.7719e-25 0 2.80167e-12 0 2.02416e-28
1067 8 0.001 0.0125 0 -0.0372987 2.7719e-25 0 -2.38283e-12 0 1.85085e-28
1068 8 0.001 0.0125 0 -0.0366611 2.7719e-25 0 2.80167e-12 0 2.02416e-28
1217 9 0.001 0.0175 0 -0.0372987 -2.7719e-25 0 -2.38283e-12 0 1.85085e-28
1218 9 0.001 0.0175 0 -0.0366611 -2.7719e-25 0 2.80167e-12 0 2.02416e-28
1367 10 0.001 0.0225 0 -0.0372987 -2.7719e-25 0 -2.38283e-12 0 1.85085e-28
1368 10 0.001 0.0225 0 -0.0366611 -2.7719e-25 0 2.80167e-12 0 2.02416e-28
19 1 0.001 -0.0225 0 -0.0360235 2.7719e-25 0 -1.67839e-13 0 3.29996e-29
20 1 0.001 -0.0225 0 -0.0353859 2.7719e-25 0 2.25555e-12 0 3.37143e-28
169 2 0.001 -0.0175 0 -0.0360235 2.7719e-25 0 -1.67839e-13 0 3.29996e-29
170 2 0.001 -0.0175 0 -0.0353859 2.7719e-25 0 2.25555e-12 0 3.37143e-28
319 3 0.001 -0.0125 0 -0.0360235 -2.7719e-25 0 -1.67839e-13 0 3.29996e-29
320 3 0.001 -0.0125 0 -0.0353859 -2.7719e-25 0 2.25555e-12 0 3.37143e-28
469 4 0.001 -0.00750004 0 -0.0360235 -2.7719e-25 0 -1.67839e-13 0 3.29996e-29
470 4 0.001 -0.00750004 0 -0.0353859 -2.7719e-25 0 2.25555e-12 0 3.37143e-28
619 5 0.001 -0.00250004 0 -0.0360235 -2.7719e-25 0 -1.67839e-13 0 3.29996e-29
620 5 0.001 -0.00250004 0 -0.0353859 -2.7719e-25 0 2.25555e-12 0 3.37143e-28
769 6 0.001 0.00250004 0 -0.0360235 2.7719e-25 0 -1.67839e-13 0 3.29996e-29
770 6 0.001 0.00250004 0 -0.0353859 2.7719e-25 0 2.25555e-12 0 3.37143e-28
919 7 0.001 0.00749996 0 -0.0360235 -2.7719e-25 0 -1.67839e-13 0 3.29996e-29
920 7 0.001 0.00749996 0 -0.0353859 -2.7719e-25 0 2.25555e-12 0 3.37143e-28
1069 8 0.001 0.0125 0 -0.0360235 2.7719e-25 0 -1.67839e-13 0 3.29996e-29
1070 8 0.001 0.0125 0 -0.0353859 2.7719e-25 0 2.25555e-12 0 3.37143e-28
1219 9 0.001 0.0175 0 -0.0360235 -2.7719e-25 0 -1.67839e-13 0 3.29996e-29
1220 9 0.001 0.0175 0 -0.0353859 -2.7719e-25 0 2.25555e-12 0 3.37143e-28
1369 10 0.001 0.0225 0 -0.0360235 -2.7719e-25 0 -1.67839e-13 0 3.29996e-29
1370 10 0.001 0.0225 0 -0.0353859 -2.7719e-25 0 2.25555e-12 0 3.37143e-28
21 1 0.001 -0.0225 0 -0.0347483 2.7719e-25 0 -4.13643e-12 0 3.99433e-28
22 1 0.001 -0.0225 0 -0.0341107 2.7719e-25 0 -4.20667e-14 0 1.53626e-28
23 1 0.001 -0.0225 0 -0.0334732 2.7719e-25 0 3.13407e-12 0 2.0677e-28
171 2 0.001 -0.0175 0 -0.0347483 2.7719e-25 0 -4.13643e-12 0 3.99433e-28
172 2 0.001 -0.0175 0 -0.0341107 2.7719e-25 0 -4.20667e-14 0 1.53626e-28
173 2 0.001 -0.0175 0 -0.0334732 2.7719e-25 0 3.13407e-12 0 2.0677e-28
321 3 0.001 -0.0125 0 -0.0347483 -2.7719e-25 0 -4.13643e-12 0 3.99433e-28
322 3 0.001 -0.0125 0 -0.0341107 -2.7719e-25 0 -4.20667e-14 0 1.53626e-28
323 3 0.001 -0.0125 0 -0.0334732 -2.7719e-25 0 3.13407e-12 0 2.0677e-28
471 4 0.001 -0.00750004 0 -0.0347483 -2.7719e-25 0 -4.13643e-12 0 3.99433e-28
472 4 0.001 -0.00750004 0 -0.0341107 -2.7719e-25 0 -4.20667e-14 0 1.53626e-28
473 4 0.001 -0.00750004 0 -0.0334732 -2.7719e-25 0 3.13407e-12 0 2.0677e-28
621 5 0.001 -0.00250004 0 -0.0347483 -2.7719e-25 0 -4.13643e-12 0 3.99433e-28
622 5 0.001 -0.00250004 0 -0.0341107 -2.7719e-25 0 -4.20667e-14 0 1.53626e-28
623 5 0.001 -0.00250004 0 -0.0334732 -2.7719e-25 0 3.13407e-12 0 2.0677e-28
771 6 0.001 0.00250004 0 -0.0347483 2.7719e-25 0 -4.13643e-12 0 3.99433e-28
772 6 0.001 0.00250004 0 -0.0341107 2.7719e-25 0 -4.20667e-14 0 1.53626e-28
773 6 0.001 0.00250004 0 -0.0334732 2.7719e-25 0 3.13407e-12 0 2.0677e-28
921 7 0.001 0.00749996 0 -0.0347483 -2.7719e-25 0 -4.13643e-12 0 3.99433e-28
922 7 0.001 0.00749996 0 -0.0341107 -2.7719e-25 0 -4.20667e-14 0 1.53626e-28
923 7 0.001 0.00749996 0 -0.0334732 -2.7719e-25 0 3.13407e-12 0 2.0677e-28
1071 8 0.001 0.0125 0 -0.0347483 2.7719e-25 0 -4.13643e-12 0 3.99433e-28
1072 8 0.001 0.0125 0 -0.0341107 2.7719e-25 0 -4.20667e-14 0 1.53626e-28
1073 8 0.001 0.0125 0 -0.0334732 2.7719e-25 0 3.13407e-12 0 2.0677e-28
1221 9 0.001 0.0175 0 -0.0347483 -2.7719e-25 0 -4.13643e-12 0 3.99433e-28
1222 9 0.001 0.0175 0 -0.0341107 -2.7719e-25 0 -4.20667e-14 0 1.53626e-28
1223 9 0.001 0.0175 0 -0.0334732 -2.7719e-25 0 3.13407e-12 0 2.0677e-28
1371 10 0.001 0.0225 0 -0.0347483 -2.7719e-25 0 -4.13643e-12 0 3.99433e-28
1372 10 0.001 0.0225 0 -0.0341107 -2.7719e-25 0 -4.20667e-14 0 1.53626e-28
1373 10 0.001 0.0225 0 -0.0334732 -2.7719e-25 0 3.13407e-12 0 2.0677e-28
24 1 0.001 -0.0225 0 -0.0328356 2.7719e-25 0 6.68491e-13 0 3.7108e-28
25 1 0.001 -0.0225 0 -0.032198 2.7719e-25 0 -3.80285e-12 0 3.22655e-28
174 2 0.001 -0.0175 0 -0.0328356 2.7719e-25 0 6.68491e-13 0 3.7108e-28
175 2 0.001 -0.0175 0 -0.032198 2.7719e-25 0 -3.80285e-12 0 3.22655e-28
324 3 0.001 -0.0125 0 -0.0328356 -2.7719e-25 0 6.68491e-13 0 3.7108e-28
325 3 0.001 -0.0125 0 -0.032198 -2.7719e-25 0 -3.80285e-12 0 3.22655e-28
474 4 0.001 -0.00750004 0 -0.0328356 -2.7719e-25 0 6.68491e-13 0 3.7108e-28
475 4 0.001 -0.00750004 0 -0.032198 -2.7719e-25 0 -3.80285e-12 0 3.22655e-28
624 5 0.001 -0.00250004 0 -0.0328356 -2.7719e-25 0 6.68491e-13 0 3.7108e-28
625 5 0.001 -0.00250004 0 -0.032198 -2.7719e-25 0 -3.80285e-12 0 3.22655e-28
774 6 0.001 0.00250004 0 -0.0328356 2.7719e-25 0 6.68491e-13 0 3.7108e-28
775 6 0.001 0.00250004 0 -0.032198 2.7719e-25 0 -3.80285e-12 0 3.22655e-28
924 7 0.001 0.00749996 0 -0.0328356 -2.7719e-25 0 6.68491e-13 0 3.7108e-28
925 7 0.001 0.00749996 0 -0.032198 -2.7719e-25 0 -3.80285e-12 0 3.22655e-28
1074 8 0.001 0.0125 0 -0.0328356 2.7719e-25 0 6.68491e-13 0 3.7108e-28
1075 8 0.001 0.0125 0 -0.032198 2.7719e-25 0 -3.80285e-12 0 3.22655e-28
1224 9 0.001 0.0175 0 -0.0328356 -2.7719e-25 0 6.68491e-13 0 3.7108e-28
1225 9 0.001 0.0175 0 -0.032198 -2.7719e-25 0 -3.80285e-12 0 3.22655e-28
1374 10 0.001 0.0225 0 -0.0328356 -2.7719e-25 0 6.68491e-13 0 3.7108e-28
1375 10 0.001 0.0225 0 -0.032198 -2.7719e-25 0 -3.80285e-12 0 3.22655e-28
26 1 0.001 -0.0225 0 -0.0315604 2.7719e-25 0 3.76429e-13 0 1.21094e-28
27 1 0.001 -0.0225 0 -0.0309228 2.7719e-25 0 3.33913e-13 0 6.05889e-29
176 2 0.001 -0.0175 0 -0.0315604 2.7719e-25 0 3.76429e-13 0 1.21094e-28
177 2 0.001 -0.0175 0 -0.0309228 2.7719e-25 0 3.33913e-13 0 6.05889e-29
326 3 0.001 -0.0125 0 -0.0315604 -2.7719e-25 0 3.76429e-13 0 1.21094e-28
327 3 0.001 -0.0125 0 -0.0309228 -2.7719e-25 0 3.33913e-13 0 6.05889e-29
476 4 0.001 -0.00750004 0 -0.0315604 -2.7719e-25 0 3.76429e-13 0 1.21094e-28
477 4 0.001 -0.00750004 0 -0.0309228 -2.7719e-25 0 3.33913e-13 0 6.05889e-29
626 5 0.001 -0.00250004 0 -0.0315604 -2.7719e-25 0 3.76429e-13 0 1.21094e-28
627 5 0.001 -0.00250004 0 -0.0309228 -2.7719e-25 0 3.33913e-13 0 6.05889e-29
776 6 0.001 0.00250004 0 -0.0315604 2.7719e-25 0 3.76429e-13 0 1.21094e-28
777 6 0.001 0.00250004 0 -0.0309228 2.7719e-25 0 3.33913e-13 0 6.05889e-29
926 7 0.001 0.00749996 0 -0.0315604 -2.7719e-25 0 3.76429e-13 0 1.21094e-28
927 7 0.001 0.00749996 0 -0.0309228 -2.7719e-25 0 3.33913e-13 0 6.05889e-29
1076 8 0.001 0.0125 0 -0.0315604 2.7719e-25 0 3.76429e-13 0 1.21094e-28
1077 8 0.001 0.0125 0 -0.0309228 2.7719e-25 0 3.33913e-13 0 6.05889e-29
1226 9 0.001 0.0175 0 -0.0315604 -2.7719e-25 0 3.76429e-13 0 1.21094e-28
1227 9 0.001 0.0175 0 -0.0309228 -2.7719e-25 0 3.33913e-13 0 6.05889e-29
1376 10 0.001 0.0225 0 -0.0315604 -2.7719e-25 0 3.76429e-13 0 1.21094e-28
1377 10 0.001 0.0225 0 -0.0309228 -2.7719e-25 0 3.33913e-13 0 6.05889e-29
28 1 0.001 -0.0225 0 -0.0302852 2.7719e-25 0 2.61186e-12 0 1.75107e-28
29 1 0.001 -0.0225 0 -0.0296477 2.7719e-25 0 -4.3653e-12 0 4.0071e-28
30 1 0.001 -0.0225 0 -0.0290101 2.7719e-25 0 2.21311e-12 0 2.46118e-28
178 2 0.001 -0.0175 0 -0.0302852 2.7719e-25 0 2.61186e-12 0 1.75107e-28
179 2 0.001 -0.0175 0 -0.0296477 2.7719e-25 0 -4.3653e-12 0 4.0071e-28
180 2 0.001 -0.0175 0 -0.0290101 2.7719e-25 0 2.21311e-12 0 2.46118e-28
328 3 0.001 -0.0125 0 -0.0302852 -2.7719e-25 0 2.61186e-12 0 1.75107e-28
329 3 0.001 -0.0125 0 -0.0296477 -2.7719e-25 0 -4.3653e-12 0 4.0071e-28
330 3 0.001 -0.0125 0 -0.0290101 -2.7719e-25 0 2.21311e-12 0 2.46118e-28
478 4 0.001 -0.00750004 0 -0.0302852 -2.7719e-25 0 2.61186e-12 0 1.75107e-28
479 4 0.001 -0.00750004 0 -0.0296477 -2.7719e-25 0 -4.3653e-12 0 4.0071e-28
480 4 0.001 -0.00750004 0 -0.0290101 -2.7719e-25 0 2.21311e-12 0 2.46118e-28
628 5 0.001 -0.00250004 0 -0.0302852 -2.7719e-25 0 2.61186e-12 0 1.75107e-28
629 5 0.001 -0.00250004 0 -0.0296477 -2.7719e-25 0 -4.3653e-12 0 4.0071e-28
630 5 0.001 -0.00250004 0 -0.0290101 -2.7719e-25 0 2.21311e-12 0 2.46118e-28
778 6 0.001 0.00250004 0 -0.0302852 2.7719e-25 0 2.61186e-12 0 1.75107e-28
779 6 0.001 0.00250004 0 -0.0296477 2.7719e-25 0 -4.3653e-12 0 4.0071e-28
780 6 0.001 0.00250004 0 -0.0290101 2.7719e-25 0 2.21311e-12 0 2.46118e-28
928 7 0.001 0.00749996 0 -0.0302852 -2.7719e-25 0 2.61186e-12 0 1.75107e-28
929 7 0.001 0.00749996 0 -0.0296477 -2.7719e-25 0 -4.3653e-12 0 4.0071e-28
930 7 0.001 0.00749996 0 -0.0290101 -2.7719e-25 0 2.21311e-12 0 2.46118e-28
1078 8 0.001 0.0125 0 -0.0302852 2.7719e-25 0 2.61186e-12 0 1.75107e-28
1079 8 0.001 0.0125 0 -0.0296477 2.7719e-25 0 -4.3653e-12 0 4.0071e-28
1080 8 0.001 0.0125 0 -0.0290101 2.7719e-25 0 2.21311e-12 0 2.46118e-28
1228 9 0.001 0.0175 0 -0.0302852 -2.7719e-25 0 2.61186e-12 0 1.75107e-28
1229 9 0.001 0.0175 0 -0.0296477 -2.7719e-25 0 -4.3653e-12 0 4.0071e-28
1230 9 0.001 0.0175 0 -0.0290101 -2.7719e-25 0 2.21311e-12 0 2.46118e-28
1378 10 0.001 0.0225 0 -0.0302852 -2.7719e-25 0 2.61186e-12 0 1.75107e-28
1379 10 0.001 0.0225 0 -0.0296477 -2.7719e-25 0 -4.3653e-12 0 4.0071e-28
1380 10 0.001 0.0225 0 -0.0290101 -2.7719e-25 0 2.21311e-12 0 2.46118e-28
31 1 0.001 -0.0225 0 -0.0283725 2.7719e-25 0 1.46302e-13 0 2.02001e-30
32 1 0.001 -0.0225 0 -0.0277349 2.7719e-25 0 -3.33591e-13 0 6.78097e-30
181 2 0.001 -0.0175 0 -0.0283725 2.7719e-25 0 1.46302e-13 0 2.02001e-30
182 2 0.001 -0.0175 0 -0.0277349 2.7719e-25 0 -3.33591e-13 0 6.78097e-30
331 3 0.001 -0.0125 0 -0.0283725 -2.7719e-25 0 1.46302e-13 0 2.02001e-30
332 3 0.001 -0.0125 0 -0.0277349 -2.7719e-25 0 -3.33591e-13 0 6.78097e-30
481 4 0.001 -0.00750004 0 -0.0283725 -2.7719e-25 0 1.46302e-13 0 2.02001e-30
482 4 0.001 -0.00750004 0 -0.0277349 -2.7719e-25 0 -3.33591e-13 0 6.78097e-30
631 5 0.001 -0.00250004 0 -0.0283725 -2.7719e-25 0 1.46302e-13 0 2.02001e-30
632 5 0.001 -0.00250004 0 -0.0277349 -2.7719e-25 0 -3.33591e-13 0 6.78097e-30
781 6 0.001 0.00250004 0 -0.0283725 2.7719e-25 0 1.46302e-13 0 2.02001e-30
782 6 0.001 0.00250004 0 -0.0277349 2.7719e-25 0 -3.33591e-13 0 6.78097e-30
931 7 0.001 0.00749996 0 -0.0283725 -2.7719e-25 0 1.46302e-13 0 2.02001e-30
932 7 0.001 0.00749996 0 -0.0277349 -2.7719e-25 0 -3.33591e-13 0 6.78097e-30
1081 8 0.001 0.0125 0 -0.0283725 2.7719e-25 0 1.46302e-13 0 2.02001e-30
1082 8 0.001 0.0125 0 -0.0277349 2.7719e-25 0 -3.33591e-13 0 6.78097e-30
1231 9 0.001 0.0175 0 -0.0283725 -2.7719e-25 0 1.46302e-13 0 2.02001e-30
1232 9 0.001 0.0175 0 -0.0277349 -2.7719e-25 0 -3.33591e-13 0 6.78097e-30
1381 10 0.001 0.0225 0 -0.0283725 -2.7719e-25 0 1.46302e-13 0 2.02001e-30
1382 10 0.001 0.0225 0 -0.0277349 -2.7719e-25 0 -3.33591e-13 0 6.78097e-30
33 1 0.001 -0.0225 0 -0.0270973 2.7719e-25 0 1.69194e-12 0 7.60657e-29
34 1 0.001 -0.0225 0 -0.0264597 2.7719e-25 0 3.7741e-13 0 1.8518e-28
35 1 0.001 -0.0225 0 -0.0258221 2.7719e-25 0 -6.89663e-12 0 1.24932e-27
183 2 0.001 -0.0175 0 -0.0270973 2.7719e-25 0 1.69194e-12 0 7.60657e-29
184 2 0.001 -0.0175 0 -0.0264597 2.7719e-25 0 3.7741e-13 0 1.8518e-28
185 2 0.001 -0.0175 0 -0.0258221 2.7719e-25 0 -6.89663e-12 0 1.24932e-27
333 3 0.001 -0.0125 0 -0.0270973 -2.7719e-25 0 1.69194e-12 0 7.60657e-29
334 3 0.001 -0.0125 0 -0.0264597 -2.7719e-25 0 3.7741e-13 0 1.8518e-28
335 3 0.001 -0.0125 0 -0.0258221 -2.7719e-25 0 -6.89663e-12 0 1.24932e-27
483 4 0.001 -0.00750004 0 -0.0270973 -2.7719e-25 0 1.69194e-12 0 7.60657e-29
484 4 0.001 -0.00750004 0 -0.0264597 -2.7719e-25 0 3.7741e-13 0 1.8518e-28
485 4 0.001 -0.00750004 0 -0.0258221 -2.7719e-25 0 -6.89663e-12 0 1.24932e-27
633 5 0.001 -0.00250004 0 -0.0270973 -2.7719e-25 0 1.69194e-12 0 7.60657e-29
634 5 0.001 -0.00250004 0 -0.0264597 -2.7719e-25 0 3.7741e-13 0 1.8518e-28
635 5 0.001 -0.00250004 0 -0.0258221 -2.7719e-25 0 -6.89663e-12 0 1.24932e-27
783 6 0.001 0.00250004 0 -0.0270973 2.7719e-25 0 1.69194e-12 0 7.60657e-29
784 6 0.001 0.00250004 0 -0.0264597 2.7719e-25 0 3.7741e-13 0 1.8518e-28
785 6 0.001 0.00250004 0 -0.0258221 2.7719e-25 0 -6.89663e-12 0 1.24932e-27
933 7 0.001 0.00749996 0 -0.0270973 -2.7719e-25 0 1.69194e-12 0 7.60657e-29
934 7 0.001 0.00749996 0 -0.0264597 -2.7719e-25 0 3.7741e-13 0 1.8518e-28
935 7 0.001 0.00749996 0 -0.0258221 -2.7719e-25 0 -6.89663e-12 0 1.24932e-27
1083 8 0.001 0.0125 0 -0.0270973 2.7719e-25 0 1.69194e-12 0 7.60657e-29
1084 8 0.001 0.0125 0 -0.0264597 2.7719e-25 0 3.7741e-13 0 1.8518e-28
1085 8 0.001 0.0125 0 -0.0258221 2.7719e-25 0 -6.89663e-12 0 1.24932e-27
1233 9 0.001 0.0175 0 -0.0270973 -2.7719e-25 0 1.69194e-12 0 7.60657e-29
1234 9 0.001 0.0175 0 -0.0264597 -2.7719e-25 0 3.7741e-13 0 1.8518e-28
1235 9 0.001 0.0175 0 -0.0258221 -2.7719e-25 0 -6.89663e-12 0 1.24932e-27
1383 10 0.001 0.0225 0 -0.0270973 -2.7719e-25 0 1.69194e-12 0 7.60657e-29
1384 10 0.001 0.0225 0 -0.0264597 -2.7719e-25 0 3.7741e-13 0 1.8518e-28
1385 10 0.001 0.0225 0 -0.0258221 -2.7719e-25 0 -6.89663e-12 0 1.24932e-27
36 1 0.001 -0.0225 0 -0.0251846 2.7719e-25 0 1.05941e-11 0 2.3298e-27
37 1 0.001 -0.0225 0 -0.024547 2.7719e-25 0 -3.90704e-12 0 1.28477e-27
186 2 0.001 -0.0175 0 -0.0251846 2.7719e-25 0 1.05941e-11 0 2.3298e-27
187 2 0.001 -0.0175 0 -0.024547 2.7719e-25 0 -3.90704e-12 0 1.28477e-27
336 3 0.001 -0.0125 0 -0.0251846 -2.7719e-25 0 1.05941e-11 0 2.3298e-27
337 3 0.001 -0.0125 0 -0.024547 -2.7719e-25 0 -3.90704e-12 0 1.28477e-27
486 4 0.001 -0.00750004 0 -0.0251846 -2.7719e-25 0 1.05941e-11 0 2.3298e-27
487 4 0.001 -0.00750004 0 -0.024547 -2.7719e-25 0 -3.90704e-12 0 1.28477e-27
636 5 0.001 -0.00250004 0 -0.0251846 -2.7719e-25 0 1.05941e-11 0 2.3298e-27
637 5 0.001 -0.00250004 0 -0.024547 -2.7719e-25 0 -3.90704e-12 0 1.28477e-27
786 6 0.001 0.00250004 0 -0.0251846 2.7719e-25 0 1.05941e-11 0 2.3298e-27
787 6 0.001 0.00250004 0 -0.024547 2.7719e-25 0 -3.90704e-12 0 1.28477e-27
936 7 0.001 0.00749996 0 -0.0251846 -2.7719e-25 0 1.05941e-11 0 2.3298e-27
937 7 0.001 0.00749996 0 -0.024547 -2.7719e-25 0 -3.90704e-12 0 1.28477e-27
1086 8 0.001 0.0125 0 -0.0251846 2.7719e-25 0 1.05941e-11 0 2.3298e-27
1087 8 0.001 0.0125 0 -0.024547 2.7719e-25 0 -3.90704e-12 0 1.28477e-27
1236 9 0.001 0.0175 0 -0.0251846 -2.7719e-25 0 1.05941e-11 0 2.3298e-27
1237 9 0.001 0.0175 0 -0.024547 -2.7719e-25 0 -3.90704e-12 0 1.28477e-27
1386 10 0.001 0.0225 0 -0.0251846 -2.7719e-25 0 1.05941e-11 0 2.3298e-27
1387 10 0.001 0.0225 0 -0.024547 -2.7719e-25 0 -3.90704e-12 0 1.28477e-27
38 1 0.001 -0.0225 0 -0.0239094 2.7719e-25 0 -2.59204e-12 0 1.41603e-28
39 1 0.001 -0.0225 0 -0.0232718 2.7719e-25 0 -2.38202e-12 0 5.65137e-28
188 2 0.001 -0.0175 0 -0.0239094 2.7719e-25 0 -2.59204e-12 0 1.41603e-28
189 2 0.001 -0.0175 0 -0.0232718 2.7719e-25 0 -2.38202e-12 0 5.65137e-28
338 3 0.001 -0.0125 0 -0.0239094 -2.7719e-25 0 -2.59204e-12 0 1.41603e-28
339 3 0.001 -0.0125 0 -0.0232718 -2.7719e-25 0 -2.38202e-12 0 5.65137e-28
488 4 0.001 -0.00750004 0 -0.0239094 -2.7719e-25 0 -2.59204e-12 0 1.41603e-28
489 4 0.001 -0.00750004 0 -0.0232718 -2.7719e-25 0 -2.38202e-12 0 5.65137e-28
638 5 0.001 -0.00250004 0 -0.0239094 -2.7719e-25 0 -2.59204e-12 0 1.41603e-28
639 5 0.001 -0.00250004 0 -0.0232718 -2.7719e-25 0 -2.38202e-12 0 5.65137e-28
788 6 0.001 0.00250004 0 -0.0239094 2.7719e-25 0 -2.59204e-12 0 1.41603e-28
789 6 0.001 0.00250004 0 -0.0232718 2.7719e-25 0 -2.38202e-12 0 5.65137e-28
938 7 0.001 0.00749996 0 -0.0239094 -2.7719e-25 0 -2.59204e-12 0 1.41603e-28
939 7 0.001 0.00749996 0 -0.0232718 -2.7719e-25 0 -2.38202e-12 0 5.65137e-28
1088 8 0.001 0.0125 0 -0.0239094 2.7719e-25 0 -2.59204e-12 0 1.41603e-28
1089 8 0.001 0.0125 0 -0.0232718 2.7719e-25 0 -2.38202e-12 0 5.65137e-28
1238 9 0.001 0.0175 0 -0.0239094 -2.7719e-25 0 -2.59204e-12 0 1.41603e-28
1239 9 0.001 0.0175 0 -0.0232718 -2.7719e-25 0 -2.38202e-12 0 5.65137e-28
1388 10 0.001 0.0225 0 -0.0239094 -2.7719e-25 0 -2.59204e-12 0 1.41603e-28
1389 10 0.001 0.0225 0 -0.0232718 -2.7719e-25 0 -2.38202e-12 0 5.65137e-28
40 1 0.001 -0.0225 0 -0.0226342 2.7719e-25 0 5.53801e-12 0 6.82303e-28
41 1 0.001 -0.0225 0 -0.0219966 2.7719e-25 0 -5.6415e-12 0 7.13221e-28
42 1 0.001 -0.0225 0 -0.0213591 2.7719e-25 0 5.55748e-12 0 6.9946e-28
190 2 0.001 -0.0175 0 -0.0226342 2.7719e-25 0 5.53801e-12 0 6.82303e-28
191 2 0.001 -0.0175 0 -0.0219966 2.7719e-25 0 -5.6415e-12 0 7.13221e-28
192 2 0.001 -0.0175 0 -0.0213591 2.7719e-25 0 5.55748e-12 0 6.9946e-28
340 3 0.001 -0.0125 0 -0.0226342 -2.7719e-25 0 5.53801e-12 0 6.82303e-28
341 3 0.001 -0.0125 0 -0.0219966 -2.7719e-25 0 -5.6415e-12 0 7.13221e-28
342 3 0.001 -0.0125 0 -0.0213591 -2.7719e-25 0 5.55748e-12 0 6.9946e-28
490 4 0.001 -0.00750004 0 -0.0226342 -2.7719e-25 0 5.53801e-12 0 6.82303e-28
491 4 0.001 -0.00750004 0 -0.0219966 -2.7719e-25 0 -5.6415e-12 0 7.13221e-28
492 4 0.001 -0.00750004 0 -0.0213591 -2.7719e-25 0 5.55748e-12 0 6.9946e-28