ITEM: TIMESTEP
600000
ITEM: NUMBER OF ATOMS
1500
ITEM: BOX BOUNDS ff ff ff
-2.5000000000000001e-02 2.5000000000000001e-02
-5.0000000000000001e-03 5.0000000000000001e-03
-5.0000000000000003e-02 5.0000000000000003e-02
ITEM: ATOMS id type radius x y z fx fy fz c_bendingE c_stretchingE
1 1 0.001 -0.0225 0 -0.0475 6.80338e-17 0 5.41663e-13 0 1.21636e-29
151 2 0.001 -0.0175 0 -0.0475 6.80338e-17 0 5.41663e-13 0 1.21636e-29
301 3 0.001 -0.0125 0 -0.0475 -6.80338e-17 0 5.41663e-13 0 1.21636e-29
451 4 0.001 -0.00750001 0 -0.0475 -6.80338e-17 0 5.41663e-13 0 1.21636e-29
601 5 0.001 -0.00250001 0 -0.0475 -6.80338e-17 0 5.41663e-13 0 1.21636e-29
751 6 0.001 0.00250001 0 -0.0475 6.80338e-17 0 5.41663e-13 0 1.21636e-29
901 7 0.001 0.00749999 0 -0.0475 -6.80338e-17 0 5.41663e-13 0 1.21636e-29
1051 8 0.001 0.0125 0 -0.0475 6.80338e-17 0 5.41663e-13 0 1.21636e-29
1201 9 0.001 0.0175 0 -0.0475 -6.80338e-17 0 5.41663e-13 0 1.21636e-29
1351 10 0.001 0.0225 0 -0.0475 -6.80338e-17 0 5.41663e-13 0 1.21636e-29
2 1 0.001 -0.0225 0 -0.0468624 6.80338e-17 0 -2.88396e-12 0 2.39892e-28
3 1 0.001 -0.0225 0 -0.0462248 6.80338e-17 0 3.80374e-12 0 3.16298e-28
4 1 0.001 -0.0225 0 -0.0455872 6.80338e-17 0 -1.04567e-12 0 9.57518e-29
152 2 0.001 -0.0175 0 -0.0468624 6.80338e-17 0 -2.88396e-12 0 2.39892e-28
153 2 0.001 -0.0175 0 -0.0462248 6.80338e-17 0 3.80374e-12 0 3.16298e-28
154 2 0.001 -0.0175 0 -0.0455872 6.80338e-17 0 -1.04567e-12 0 9.57518e-29
302 3 0.001 -0.0125 0 -0.0468624 -6.80338e-17 0 -2.88396e-12 0 2.39892e-28
303 3 0.001 -0.0125 0 -0.0462248 -6.80338e-17 0 3.80374e-12 0 3.16298e-28
304 3 0.001 -0.0125 0 -0.0455872 -6.80338e-17 0 -1.04567e-12 0 9.57518e-29
452 4 0.001 -0.00750001 0 -0.0468624 -6.80338e-17 0 -2.88396e-12 0 2.39892e-28
453 4 0.001 -0.00750001 0 -0.0462248 -6.80338e-17 0 3.80374e-12 0 3.16298e-28
454 4 0.001 -0.00750001 0 -0.0455872 -6.80338e-17 0 -1.04567e-12 0 9.57518e-29
602 5 0.001 -0.00250001 0 -0.0468624 -6.80338e-17 0 -2.88396e-12 0 2.39892e-28
603 5 0.001 -0.00250001 0 -0.0462248 -6.80338e-17 0 3.80374e-12 0 3.16298e-28
604 5 0.001 -0.00250001 0 -0.0455872 -6.80338e-17 0 -1.04567e-12 0 9.57518e-29
752 6 0.001 0.00250001 0 -0.0468624 6.80338e-17 0 -2.88396e-12 0 2.39892e-28
753 6 0.001 0.00250001 0 -0.0462248 6.80338e-17 0 3.80374e-12 0 3.16298e-28
754 6 0.001 0.00250001 0 -0.0455872 6.80338e-17 0 -1.04567e-12 0 9.57518e-29
902 7 0.001 0.00749999 0 -0.0468624 -6.80338e-17 0 -2.88396e-12 0 2.39892e-28
903 7 0.001 0.00749999 0 -0.0462248 -6.80338e-17 0 3.80374e-12 0 3.16298e-28
904 7 0.001 0.00749999 0 -0.0455872 -6.80338e-17 0 -1.04567e-12 0 9.57518e-29
1052 8 0.001 0.0125 0 -0.0468624 6.80338e-17 0 -2.88396e-12 0 2.39892e-28
1053 8 0.001 0.0125 0 -0.0462248 6.80338e-17 0 3.80374e-12 0 3.16298e-28
1054 8 0.001 0.0125 0 -0.0455872 6.80338e-17 0 -1.04567e-12 0 9.57518e-29
1202 9 0.001 0.0175 0 -0.0468624 -6.80338e-17 0 -2.88396e-12 0 2.39892e-28
1203 9 0.001 0.0175 0 -0.0462248 -6.80338e-17 0 3.80374e-12 0 3.16298e-28
1204 9 0.001 0.0175 0 -0.0455872 -6.80338e-17 0 -1.04567e-12 0 9.57518e-29
1352 10 0.001 0.0225 0 -0.0468624 -6.80338e-17 0 -2.88396e-12 0 2.39892e-28
1353 10 0.001 0.0225 0 -0.0462248 -6.80338e-17 0 3.80374e-12 0 3.16298e-28
1354 10 0.001 0.0225 0 -0.0455872 -6.80338e-17 0 -1.04567e-12 0 9.57518e-29
5 1 0.001 -0.0225 0 -0.0449497 6.80338e-17 0 -1.33662e-12 0 4.24196e-29
6 1 0.001 -0.0225 0 -0.0443121 6.80338e-17 0 2.17177e-12 0 1.0028e-28
155 2 0.001 -0.0175 0 -0.0449497 6.80338e-17 0 -1.33662e-12 0 4.24196e-29
156 2 0.001 -0.0175 0 -0.0443121 6.80338e-17 0 2.17177e-12 0 1.0028e-28
305 3 0.001 -0.0125 0 -0.0449497 -6.80338e-17 0 -1.33662e-12 0 4.24196e-29
306 3 0.001 -0.0125 0 -0.0443121 -6.80338e-17 0 2.17177e-12 0 1.0028e-28
455 4 0.001 -0.00750001 0 -0.0449497 -6.80338e-17 0 -1.33662e-12 0 4.24196e-29
456 4 0.001 -0.00750001 0 -0.0443121 -6.80338e-17 0 2.17177e-12 0 1.0028e-28
605 5 0.001 -0.00250001 0 -0.0449497 -6.80338e-17 0 -1.33662e-12 0 4.24196e-29
606 5 0.001 -0.00250001 0 -0.0443121 -6.80338e-17 0 2.17177e-12 0 1.0028e-28
755 6 0.001 0.00250001 0 -0.0449497 6.80338e-17 0 -1.33662e-12 0 4.24196e-29
756 6 0.001 0.00250001 0 -0.0443121 6.80338e-17 0 2.17177e-12 0 1.0028e-28
905 7 0.001 0.00749999 0 -0.0449497 -6.80338e-17 0 -1.33662e-12 0 4.24196e-29
906 7 0.001 0.00749999 0 -0.0443121 -6.80338e-17 0 2.17177e-12 0 1.0028e-28
1055 8 0.001 0.0125 0 -0.0449497 6.80338e-17 0 -1.33662e-12 0 4.24196e-29
1056 8 0.001 0.0125 0 -0.0443121 6.80338e-17 0 2.17177e-12 0 1.0028e-28
1205 9 0.001 0.0175 0 -0.0449497 -6.80338e-17 0 -1.33662e-12 0 4.24196e-29
1206 9 0.001 0.0175 0 -0.0443121 -6.80338e-17 0 2.17177e-12 0 1.0028e-28
1355 10 0.001 0.0225 0 -0.0449497 -6.80338e-17 0 -1.33662e-12 0 4.24196e-29
1356 10 0.001 0.0225 0 -0.0443121 -6.80338e-17 0 2.17177e-12 0 1.0028e-28
7 1 0.001 -0.0225 0 -0.0436745 6.80338e-17 0 -2.88238e-12 0 1.75574e-28
8 1 0.001 -0.0225 0 -0.0430369 6.80338e-17 0 3.17479e-12 0 2.09528e-28
157 2 0.001 -0.0175 0 -0.0436745 6.80338e-17 0 -2.88238e-12 0 1.75574e-28
158 2 0.001 -0.0175 0 -0.0430369 6.80338e-17 0 3.17479e-12 0 2.09528e-28
307 3 0.001 -0.0125 0 -0.0436745 -6.80338e-17 0 -2.88238e-12 0 1.75574e-28
308 3 0.001 -0.0125 0 -0.0430369 -6.80338e-17 0 3.17479e-12 0 2.09528e-28
457 4 0.001 -0.00750001 0 -0.0436745 -6.80338e-17 0 -2.88238e-12 0 1.75574e-28
458 4 0.001 -0.00750001 0 -0.0430369 -6.80338e-17 0 3.17479e-12 0 2.09528e-28
607 5 0.001 -0.00250001 0 -0.0436745 -6.80338e-17 0 -2.88238e-12 0 1.75574e-28
608 5 0.001 -0.00250001 0 -0.0430369 -6.80338e-17 0 3.17479e-12 0 2.09528e-28
757 6 0.001 0.00250001 0 -0.0436745 6.80338e-17 0 -2.88238e-12 0 1.75574e-28
758 6 0.001 0.00250001 0 -0.0430369 6.80338e-17 0 3.17479e-12 0 2.09528e-28
907 7 0.001 0.00749999 0 -0.0436745 -6.80338e-17 0 -2.88238e-12 0 1.75574e-28
908 7 0.001 0.00749999 0 -0.0430369 -6.80338e-17 0 3.17479e-12 0 2.09528e-28
1057 8 0.001 0.0125 0 -0.0436745 6.80338e-17 0 -2.88238e-12 0 1.75574e-28
1058 8 0.001 0.0125 0 -0.0430369 6.80338e-17 0 3.17479e-12 0 2.09528e-28
1207 9 0.001 0.0175 0 -0.0436745 -6.80338e-17 0 -2.88238e-12 0 1.75574e-28
1208 9 0.001 0.0175 0 -0.0430369 -6.80338e-17 0 3.17479e-12 0 2.09528e-28
1357 10 0.001 0.0225 0 -0.0436745 -6.80338e-17 0 -2.88238e-12 0 1.75574e-28
1358 10 0.001 0.0225 0 -0.0430369 -6.80338e-17 0 3.17479e-12 0 2.09528e-28
9 1 0.001 -0.0225 0 -0.0423993 6.80338e-17 0 -4.92997e-12 0 5.75193e-28
10 1 0.001 -0.0225 0 -0.0417617 6.80338e-17 0 7.81452e-12 0 1.29004e-27
11 1 0.001 -0.0225 0 -0.0411242 6.80338e-17 0 -7.94075e-12 0 1.32595e-27
159 2 0.001 -0.0175 0 -0.0423993 6.80338e-17 0 -4.92997e-12 0 5.75193e-28
160 2 0.001 -0.0175 0 -0.0417617 6.80338e-17 0 7.81452e-12 0 1.29004e-27
161 2 0.001 -0.0175 0 -0.0411242 6.80338e-17 0 -7.94075e-12 0 1.32595e-27
309 3 0.001 -0.0125 0 -0.0423993 -6.80338e-17 0 -4.92997e-12 0 5.75193e-28
310 3 0.001 -0.0125 0 -0.0417617 -6.80338e-17 0 7.81452e-12 0 1.29004e-27
311 3 0.001 -0.0125 0 -0.0411242 -6.80338e-17 0 -7.94075e-12 0 1.32595e-27
459 4 0.001 -0.00750001 0 -0.0423993 -6.80338e-17 0 -4.92997e-12 0 5.75193e-28
460 4 0.001 -0.00750001 0 -0.0417617 -6.80338e-17 0 7.81452e-12 0 1.29004e-27
461 4 0.001 -0.00750001 0 -0.0411242 -6.80338e-17 0 -7.94075e-12 0 1.32595e-27
609 5 0.001 -0.00250001 0 -0.0423993 -6.80338e-17 0 -4.92997e-12 0 5.75193e-28
610 5 0.001 -0.00250001 0 -0.0417617 -6.80338e-17 0 7.81452e-12 0 1.29004e-27
611 5 0.001 -0.00250001 0 -0.0411242 -6.80338e-17 0 -7.94075e-12 0 1.32595e-27
759 6 0.001 0.00250001 0 -0.0423993 6.80338e-17 0 -4.92997e-12 0 5.75193e-28
760 6 0.001 0.00250001 0 -0.0417617 6.80338e-17 0 7.81452e-12 0 1.29004e-27
761 6 0.001 0.00250001 0 -0.0411242 6.80338e-17 0 -7.94075e-12 0 1.32595e-27
909 7 0.001 0.00749999 0 -0.0423993 -6.80338e-17 0 -4.92997e-12 0 5.75193e-28
910 7 0.001 0.00749999 0 -0.0417617 -6.80338e-17 0 7.81452e-12 0 1.29004e-27
911 7 0.001 0.00749999 0 -0.0411242 -6.80338e-17 0 -7.94075e-12 0 1.32595e-27
1059 8 0.001 0.0125 0 -0.0423993 6.80338e-17 0 -4.92997e-12 0 5.75193e-28
1060 8 0.001 0.0125 0 -0.0417617 6.80338e-17 0 7.81452e-12 0 1.29004e-27
1061 8 0.001 0.0125 0 -0.0411242 6.80338e-17 0 -7.94075e-12 0 1.32595e-27
1209 9 0.001 0.0175 0 -0.0423993 -6.80338e-17 0 -4.92997e-12 0 5.75193e-28
1210 9 0.001 0.0175 0 -0.0417617 -6.80338e-17 0 7.81452e-12 0 1.29004e-27
1211 9 0.001 0.0175 0 -0.0411242 -6.80338e-17 0 -7.94075e-12 0 1.32595e-27
1359 10 0.001 0.0225 0 -0.0423993 -6.80338e-17 0 -4.92997e-12 0 5.75193e-28
1360 10 0.001 0.0225 0 -0.0417617 -6.80338e-17 0 7.81452e-12 0 1.29004e-27
1361 10 0.001 0.0225 0 -0.0411242 -6.80338e-17 0 -7.94075e-12 0 1.32595e-27
12 1 0.001 -0.0225 0 -0.0404866 6.80338e-17 0 5.01464e-12 0 6.05814e-28
13 1 0.001 -0.0225 0 -0.039849 6.80338e-17 0 -2.84116e-12 0 1.68164e-28
162 2 0.001 -0.0175 0 -0.0404866 6.80338e-17 0 5.01464e-12 0 6.05814e-28
163 2 0.001 -0.0175 0 -0.039849 6.80338e-17 0 -2.84116e-12 0 1.68164e-28
312 3 0.001 -0.0125 0 -0.0404866 -6.80338e-17 0 5.01464e-12 0 6.05814e-28
313 3 0.001 -0.0125 0 -0.039849 -6.80338e-17 0 -2.84116e-12 0 1.68164e-28
462 4 0.001 -0.00750001 0 -0.0404866 -6.80338e-17 0 5.01464e-12 0 6.05814e-28
463 4 0.001 -0.00750001 0 -0.039849 -6.80338e-17 0 -2.84116e-12 0 1.68164e-28
612 5 0.001 -0.00250001 0 -0.0404866 -6.80338e-17 0 5.01464e-12 0 6.05814e-28
613 5 0.001 -0.00250001 0 -0.039849 -6.80338e-17 0 -2.84116e-12 0 1.68164e-28
762 6 0.001 0.00250001 0 -0.0404866 6.80338e-17 0 5.01464e-12 0 6.05814e-28
763 6 0.001 0.00250001 0 -0.039849 6.80338e-17 0 -2.84116e-12 0 1.68164e-28
912 7 0.001 0.00749999 0 -0.0404866 -6.80338e-17 0 5.01464e-12 0 6.05814e-28
913 7 0.001 0.00749999 0 -0.039849 -6.80338e-17 0 -2.84116e-12 0 1.68164e-28
1062 8 0.001 0.0125 0 -0.0404866 6.80338e-17 0 5.01464e-12 0 6.05814e-28
1063 8 0.001 0.0125 0 -0.039849 6.80338e-17 0 -2.84116e-12 0 1.68164e-28
1212 9 0.001 0.0175 0 -0.0404866 -6.80338e-17 0 5.01464e-12 0 6.05814e-28
1213 9 0.001 0.0175 0 -0.039849 -6.80338e-17 0 -2.84116e-12 0 1.68164e-28
1362 10 0.001 0.0225 0 -0.0404866 -6.80338e-17 0 5.01464e-12 0 6.05814e-28
1363 10 0.001 0.0225 0 -0.039849 -6.80338e-17 0 -2.84116e-12 0 1.68164e-28
14 1 0.001 -0.0225 0 -0.0392114 6.80338e-17 0 2.21592e-12 0 1.06282e-28
15 1 0.001 -0.0225 0 -0.0385738 6.80338e-17 0 -9.1834e-13 0 3.19076e-29
16 1 0.001 -0.0225 0 -0.0379362 6.80338e-17 0 9.1802e-13 0 3.19076e-29
164 2 0.001 -0.0175 0 -0.0392114 6.80338e-17 0 2.21592e-12 0 1.06282e-28
165 2 0.001 -0.0175 0 -0.0385738 6.80338e-17 0 -9.1834e-13 0 3.19076e-29
166 2 0.001 -0.0175 0 -0.0379362 6.80338e-17 0 9.1802e-13 0 3.19076e-29
314 3 0.001 -0.0125 0 -0.0392114 -6.80338e-17 0 2.21592e-12 0 1.06282e-28
315 3 0.001 -0.0125 0 -0.0385738 -6.80338e-17 0 -9.1834e-13 0 3.19076e-29
316 3 0.001 -0.0125 0 -0.0379362 -6.80338e-17 0 9.1802e-13 0 3.19076e-29
464 4 0.001 -0.00750001 0 -0.0392114 -6.80338e-17 0 2.21592e-12 0 1.06282e-28
465 4 0.001 -0.00750001 0 -0.0385738 -6.80338e-17 0 -9.1834e-13 0 3.19076e-29
466 4 0.001 -0.00750001 0 -0.0379362 -6.80338e-17 0 9.1802e-13 0 3.19076e-29
614 5 0.001 -0.00250001 0 -0.0392114 -6.80338e-17 0 2.21592e-12 0 1.06282e-28
615 5 0.001 -0.00250001 0 -0.0385738 -6.80338e-17 0 -9.1834e-13 0 3.19076e-29
616 5 0.001 -0.00250001 0 -0.0379362 -6.80338e-17 0 9.1802e-13 0 3.19076e-29
764 6 0.001 0.00250001 0 -0.0392114 6.80338e-17 0 2.21592e-12 0 1.06282e-28
765 6 0.001 0.00250001 0 -0.0385738 6.80338e-17 0 -9.1834e-13 0 3.19076e-29
766 6 0.001 0.00250001 0 -0.0379362 6.80338e-17 0 9.1802e-13 0 3.19076e-29
914 7 0.001 0.00749999 0 -0.0392114 -6.80338e-17 0 2.21592e-12 0 1.06282e-28
915 7 0.001 0.00749999 0 -0.0385738 -6.80338e-17 0 -9.1834e-13 0 3.19076e-29
916 7 0.001 0.00749999 0 -0.0379362 -6.80338e-17 0 9.1802e-13 0 3.19076e-29
1064 8 0.001 0.0125 0 -0.0392114 6.80338e-17 0 2.21592e-12 0 1.06282e-28
1065 8 0.001 0.0125 0 -0.0385738 6.80338e-17 0 -9.1834e-13 0 3.19076e-29
1066 8 0.001 0.0125 0 -0.0379362 6.80338e-17 0 9.1802e-13 0 3.19076e-29
1214 9 0.001 0.0175 0 -0.0392114 -6.80338e-17 0 2.21592e-12 0 1.06282e-28
1215 9 0.001 0.0175 0 -0.0385738 -6.80338e-17 0 -9.1834e-13 0 3.19076e-29
1216 9 0.001 0.0175 0 -0.0379362 -6.80338e-17 0 9.1802e-13 0 3.19076e-29
1364 10 0.001 0.0225 0 -0.0392114 -6.80338e-17 0 2.21592e-12 0 1.06282e-28
1365 10 0.001 0.0225 0 -0.0385738 -6.80338e-17 0 -9.1834e-13 0 3.19076e-29
1366 10 0.001 0.0225 0 -0.0379362 -6.80338e-17 0 9.1802e-13 0 3.19076e-29
17 1 0.001 -0.0225 0 -0.0372987 6.80338e-17 0 3.30122e-12 0 7.56109e-28
18 1 0.001 -0.0225 0 -0.0366611 6.80338e-17 0 -1.01139e-11 0 2.18706e-27
167 2 0.001 -0.0175 0 -0.0372987 6.80338e-17 0 3.30122e-12 0 7.56109e-28
168 2 0.001 -0.0175 0 -0.0366611 6.80338e-17 0 -1.01139e-11 0 2.18706e-27
317 3 0.001 -0.0125 0 -0.0372987 -6.80338e-17 0 3.30122e-12 0 7.56109e-28
318 3 0.001 -0.0125 0 -0.0366611 -6.80338e-17 0 -1.01139e-11 0 2.18706e-27
467 4 0.001 -0.00750001 0 -0.0372987 -6.80338e-17 0 3.30122e-12 0 7.56109e-28
468 4 0.001 -0.00750001 0 -0.0366611 -6.80338e-17 0 -1.01139e-11 0 2.18706e-27
617 5 0.001 -0.00250001 0 -0.0372987 -6.80338e-17 0 3.30122e-12 0 7.56109e-28
618 5 0.001 -0.00250001 0 -0.0366611 -6.80338e-17 0 -1.01139e-11 0 2.18706e-27
767 6 0.001 0.00250001 0 -0.0372987 6.80338e-17 0 3.30122e-12 0 7.56109e-28
768 6 0.001 0.00250001 0 -0.0366611 6.80338e-17 0 -1.01139e-11 0 2.18706e-27
917 7 0.001 0.00749999 0 -0.0372987 -6.80338e-17 0 3.30122e-12 0 7.56109e-28
918 7 0.001 0.00749999 0 -0.0366611 -6.80338e-17 0 -1.01139e-11 0 2.18706e-27
1067 8 0.001 0.0125 0 -0.0372987 6.80338e-17 0 3.30122e-12 0 7.56109e-28
1068 8 0.001 0.0125 0 -0.0366611 6.80338e-17 0 -1.01139e-11 0 2.18706e-27
1217 9 0.001 0.0175 0 -0.0372987 -6.80338e-17 0 3.30122e-12 0 7.56109e-28
1218 9 0.001 0.0175 0 -0.0366611 -6.80338e-17 0 -1.01139e-11 0 2.18706e-27
1367 10 0.001 0.0225 0 -0.0372987 -6.80338e-17 0 3.30122e-12 0 7.56109e-28
1368 10 0.001 0.0225 0 -0.0366611 -6.80338e-17 0 -1.01139e-11 0 2.18706e-27
19 1 0.001 -0.0225 0 -0.0360235 6.80338e-17 0 4.93163e-12 0 1.5047e-27
20 1 0.001 -0.0225 0 -0.0353859 6.80338e-17 0 1.75479e-12 0 6.52875e-29
169 2 0.001 -0.0175 0 -0.0360235 6.80338e-17 0 4.93163e-12 0 1.5047e-27
170 2 0.001 -0.0175 0 -0.0353859 6.80338e-17 0 1.75479e-12 0 6.52875e-29
319 3 0.001 -0.0125 0 -0.0360235 -6.80338e-17 0 4.93163e-12 0 1.5047e-27
320 3 0.001 -0.0125 0 -0.0353859 -6.80338e-17 0 1.75479e-12 0 6.52875e-29
469 4 0.001 -0.00750001 0 -0.0360235 -6.80338e-17 0 4.93163e-12 0 1.5047e-27
470 4 0.001 -0.00750001 0 -0.0353859 -6.80338e-17 0 1.75479e-12 0 6.52875e-29
619 5 0.001 -0.00250001 0 -0.0360235 -6.80338e-17 0 4.93163e-12 0 1.5047e-27
620 5 0.001 -0.00250001 0 -0.0353859 -6.80338e-17 0 1.75479e-12 0 6.52875e-29
769 6 0.001 0.00250001 0 -0.0360235 6.80338e-17 0 4.93163e-12 0 1.5047e-27
770 6 0.001 0.00250001 0 -0.0353859 6.80338e-17 0 1.75479e-12 0 6.52875e-29
919 7 0.001 0.00749999 0 -0.0360235 -6.80338e-17 0 4.93163e-12 0 1.5047e-27
920 7 0.001 0.00749999 0 -0.0353859 -6.80338e-17 0 1.75479e-12 0 6.52875e-29
1069 8 0.001 0.0125 0 -0.0360235 6.80338e-17 0 4.93163e-12 0 1.5047e-27
1070 8 0.001 0.0125 0 -0.0353859 6.80338e-17 0 1.75479e-12 0 6.52875e-29
1219 9 0.001 0.0175 0 -0.0360235 -6.80338e-17 0 4.93163e-12 0 1.5047e-27
1220 9 0.001 0.0175 0 -0.0353859 -6.80338e-17 0 1.75479e-12 0 6.52875e-29
1369 10 0.001 0.0225 0 -0.0360235 -6.80338e-17 0 4.93163e-12 0 1.5047e-27
1370 10 0.001 0.0225 0 -0.0353859 -6.80338e-17 0 1.75479e-12 0 6.52875e-29
21 1 0.001 -0.0225 0 -0.0347483 6.80338e-17 0 1.67045e-13 0 5.83053e-29
22 1 0.001 -0.0225 0 -0.0341107 6.80338e-17 0 -1.25314e-12 0 3.9633e-29
23 1 0.001 -0.0225 0 -0.0334732 6.80338e-17 0 1.50442e-12 0 6.1341e-29
171 2 0.001 -0.0175 0 -0.0347483 6.80338e-17 0 1.67045e-13 0 5.83053e-29
172 2 0.001 -0.0175 0 -0.0341107 6.80338e-17 0 -1.25314e-12 0 3.9633e-29
173 2 0.001 -0.0175 0 -0.0334732 6.80338e-17 0 1.50442e-12 0 6.1341e-29
321 3 0.001 -0.0125 0 -0.0347483 -6.80338e-17 0 1.67045e-13 0 5.83053e-29
322 3 0.001 -0.0125 0 -0.0341107 -6.80338e-17 0 -1.25314e-12 0 3.9633e-29
323 3 0.001 -0.0125 0 -0.0334732 -6.80338e-17 0 1.50442e-12 0 6.1341e-29
471 4 0.001 -0.00750001 0 -0.0347483 -6.80338e-17 0 1.67045e-13 0 5.83053e-29
472 4 0.001 -0.00750001 0 -0.0341107 -6.80338e-17 0 -1.25314e-12 0 3.9633e-29
473 4 0.001 -0.00750001 0 -0.0334732 -6.80338e-17 0 1.50442e-12 0 6.1341e-29
621 5 0.001 -0.00250001 0 -0.0347483 -6.80338e-17 0 1.67045e-13 0 5.83053e-29
622 5 0.001 -0.00250001 0 -0.0341107 -6.80338e-17 0 -1.25314e-12 0 3.9633e-29
623 5 0.001 -0.00250001 0 -0.0334732 -6.80338e-17 0 1.50442e-12 0 6.1341e-29
771 6 0.001 0.00250001 0 -0.0347483 6.80338e-17 0 1.67045e-13 0 5.83053e-29
772 6 0.001 0.00250001 0 -0.0341107 6.80338e-17 0 -1.25314e-12 0 3.9633e-29
773 6 0.001 0.00250001 0 -0.0334732 6.80338e-17 0 1.50442e-12 0 6.1341e-29
921 7 0.001 0.00749999 0 -0.0347483 -6.80338e-17 0 1.67045e-13 0 5.83053e-29
922 7 0.001 0.00749999 0 -0.0341107 -6.80338e-17 0 -1.25314e-12 0 3.9633e-29
923 7 0.001 0.00749999 0 -0.0334732 -6.80338e-17 0 1.50442e-12 0 6.1341e-29
1071 8 0.001 0.0125 0 -0.0347483 6.80338e-17 0 1.67045e-13 0 5.83053e-29
1072 8 0.001 0.0125 0 -0.0341107 6.80338e-17 0 -1.25314e-12 0 3.9633e-29
1073 8 0.001 0.0125 0 -0.0334732 6.80338e-17 0 1.50442e-12 0 6.1341e-29
1221 9 0.001 0.0175 0 -0.0347483 -6.80338e-17 0 1.67045e-13 0 5.83053e-29
1222 9 0.001 0.0175 0 -0.0341107 -6.80338e-17 0 -1.25314e-12 0 3.9633e-29
1223 9 0.001 0.0175 0 -0.0334732 -6.80338e-17 0 1.50442e-12 0 6.1341e-29
1371 10 0.001 0.0225 0 -0.0347483 -6.80338e-17 0 1.67045e-13 0 5.83053e-29
1372 10 0.001 0.0225 0 -0.0341107 -6.80338e-17 0 -1.25314e-12 0 3.9633e-29
1373 10 0.001 0.0225 0 -0.0334732 -6.80338e-17 0 1.50442e-12 0 6.1341e-29
24 1 0.001 -0.0225 0 -0.0328356 6.80338e-17 0 -1.6695e-13 0 9.82415e-29
25 1 0.001 -0.0225 0 -0.032198 6.80338e-17 0 -7.39733e-12 0 1.7397e-27
174 2 0.001 -0.0175 0 -0.0328356 6.80338e-17 0 -1.6695e-13 0 9.82415e-29
175 2 0.001 -0.0175 0 -0.032198 6.80338e-17 0 -7.39733e-12 0 1.7397e-27
324 3 0.001 -0.0125 0 -0.0328356 -6.80338e-17 0 -1.6695e-13 0 9.82415e-29
325 3 0.001 -0.0125 0 -0.032198 -6.80338e-17 0 -7.39733e-12 0 1.7397e-27
474 4 0.001 -0.00750001 0 -0.0328356 -6.80338e-17 0 -1.6695e-13 0 9.82415e-29
475 4 0.001 -0.00750001 0 -0.032198 -6.80338e-17 0 -7.39733e-12 0 1.7397e-27
624 5 0.001 -0.00250001 0 -0.0328356 -6.80338e-17 0 -1.6695e-13 0 9.82415e-29
625 5 0.001 -0.00250001 0 -0.032198 -6.80338e-17 0 -7.39733e-12 0 1.7397e-27
774 6 0.001 0.00250001 0 -0.0328356 6.80338e-17 0 -1.6695e-13 0 9.82415e-29
775 6 0.001 0.00250001 0 -0.032198 6.80338e-17 0 -7.39733e-12 0 1.7397e-27
924 7 0.001 0.00749999 0 -0.0328356 -6.80338e-17 0 -1.6695e-13 0 9.82415e-29
925 7 0.001 0.00749999 0 -0.032198 -6.80338e-17 0 -7.39733e-12 0 1.7397e-27
1074 8 0.001 0.0125 0 -0.0328356 6.80338e-17 0 -1.6695e-13 0 9.82415e-29
1075 8 0.001 0.0125 0 -0.032198 6.80338e-17 0 -7.39733e-12 0 1.7397e-27
1224 9 0.001 0.0175 0 -0.0328356 -6.80338e-17 0 -1.6695e-13 0 9.82415e-29
1225 9 0.001 0.0175 0 -0.032198 -6.80338e-17 0 -7.39733e-12 0 1.7397e-27
1374 10 0.001 0.0225 0 -0.0328356 -6.80338e-17 0 -1.6695e-13 0 9.82415e-29
1375 10 0.001 0.0225 0 -0.032198 -6.80338e-17 0 -7.39733e-12 0 1.7397e-27
26 1 0.001 -0.0225 0 -0.0315604 6.80338e-17 0 1.04485e-11 0 2.37956e-27
27 1 0.001 -0.0225 0 -0.0309228 6.80338e-17 0 -2.30006e-12 0 8.09054e-28
176 2 0.001 -0.0175 0 -0.0315604 6.80338e-17 0 1.04485e-11 0 2.37956e-27
177 2 0.001 -0.0175 0 -0.0309228 6.80338e-17 0 -2.30006e-12 0 8.09054e-28
326 3 0.001 -0.0125 0 -0.0315604 -6.80338e-17 0 1.04485e-11 0 2.37956e-27
327 3 0.001 -0.0125 0 -0.0309228 -6.80338e-17 0 -2.30006e-12 0 8.09054e-28
476 4 0.001 -0.00750001 0 -0.0315604 -6.80338e-17 0 1.04485e-11 0 2.37956e-27
477 4 0.001 -0.00750001 0 -0.0309228 -6.80338e-17 0 -2.30006e-12 0 8.09054e-28
626 5 0.001 -0.00250001 0 -0.0315604 -6.80338e-17 0 1.04485e-11 0 2.37956e-27
627 5 0.001 -0.00250001 0 -0.0309228 -6.80338e-17 0 -2.30006e-12 0 8.09054e-28
776 6 0.001 0.00250001 0 -0.0315604 6.80338e-17 0 1.04485e-11 0 2.37956e-27
777 6 0.001 0.00250001 0 -0.0309228 6.80338e-17 0 -2.30006e-12 0 8.09054e-28
926 7 0.001 0.00749999 0 -0.0315604 -6.80338e-17 0 1.04485e-11 0 2.37956e-27
927 7 0.001 0.00749999 0 -0.0309228 -6.80338e-17 0 -2.30006e-12 0 8.09054e-28
1076 8 0.001 0.0125 0 -0.0315604 6.80338e-17 0 1.04485e-11 0 2.37956e-27
1077 8 0.001 0.0125 0 -0.0309228 6.80338e-17 0 -2.30006e-12 0 8.09054e-28
1226 9 0.001 0.0175 0 -0.0315604 -6.80338e-17 0 1.04485e-11 0 2.37956e-27
1227 9 0.001 0.0175 0 -0.0309228 -6.80338e-17 0 -2.30006e-12 0 8.09054e-28
1376 10 0.001 0.0225 0 -0.0315604 -6.80338e-17 0 1.04485e-11 0 2.37956e-27
1377 10 0.001 0.0225 0 -0.0309228 -6.80338e-17 0 -2.30006e-12 0 8.09054e-28
28 1 0.001 -0.0225 0 -0.0302852 6.80338e-17 0 -1.62813e-12 0 1.2823e-28
29 1 0.001 -0.0225 0 -0.0296477 6.80338e-17 0 -1.63018e-12 0 9.4832e-29
30 1 0.001 -0.0225 0 -0.0290101 6.80338e-17 0 3.90609e-12 0 3.33499e-28
178 2 0.001 -0.0175 0 -0.0302852 6.80338e-17 0 -1.62813e-12 0 1.2823e-28
179 2 0.001 -0.0175 0 -0.0296477 6.80338e-17 0 -1.63018e-12 0 9.4832e-29
180 2 0.001 -0.0175 0 -0.0290101 6.80338e-17 0 3.90609e-12 0 3.33499e-28
328 3 0.001 -0.0125 0 -0.0302852 -6.80338e-17 0 -1.62813e-12 0 1.2823e-28
329 3 0.001 -0.0125 0 -0.0296477 -6.80338e-17 0 -1.63018e-12 0 9.4832e-29
330 3 0.001 -0.0125 0 -0.0290101 -6.80338e-17 0 3.90609e-12 0 3.33499e-28
478 4 0.001 -0.00750001 0 -0.0302852 -6.80338e-17 0 -1.62813e-12 0 1.2823e-28
479 4 0.001 -0.00750001 0 -0.0296477 -6.80338e-17 0 -1.63018e-12 0 9.4832e-29
480 4 0.001 -0.00750001 0 -0.0290101 -6.80338e-17 0 3.90609e-12 0 3.33499e-28
628 5 0.001 -0.00250001 0 -0.0302852 -6.80338e-17 0 -1.62813e-12 0 1.2823e-28
629 5 0.001 -0.00250001 0 -0.0296477 -6.80338e-17 0 -1.63018e-12 0 9.4832e-29
630 5 0.001 -0.00250001 0 -0.0290101 -6.80338e-17 0 3.90609e-12 0 3.33499e-28
778 6 0.001 0.00250001 0 -0.0302852 6.80338e-17 0 -1.62813e-12 0 1.2823e-28
779 6 0.001 0.00250001 0 -0.0296477 6.80338e-17 0 -1.63018e-12 0 9.4832e-29
780 6 0.001 0.00250001 0 -0.0290101 6.80338e-17 0 3.90609e-12 0 3.33499e-28
928 7 0.001 0.00749999 0 -0.0302852 -6.80338e-17 0 -1.62813e-12 0 1.2823e-28
929 7 0.001 0.00749999 0 -0.0296477 -6.80338e-17 0 -1.63018e-12 0 9.4832e-29
930 7 0.001 0.00749999 0 -0.0290101 -6.80338e-17 0 3.90609e-12 0 3.33499e-28
1078 8 0.001 0.0125 0 -0.0302852 6.80338e-17 0 -1.62813e-12 0 1.2823e-28
1079 8 0.001 0.0125 0 -0.0296477 6.80338e-17 0 -1.63018e-12 0 9.4832e-29
1080 8 0.001 0.0125 0 -0.0290101 6.80338e-17 0 3.90609e-12 0 3.33499e-28
1228 9 0.001 0.0175 0 -0.0302852 -6.80338e-17 0 -1.62813e-12 0 1.2823e-28
1229 9 0.001 0.0175 0 -0.0296477 -6.80338e-17 0 -1.63018e-12 0 9.4832e-29
1230 9 0.001 0.0175 0 -0.0290101 -6.80338e-17 0 3.90609e-12 0 3.33499e-28
1378 10 0.001 0.0225 0 -0.0302852 -6.80338e-17 0 -1.62813e-12 0 1.2823e-28
1379 10 0.001 0.0225 0 -0.0296477 -6.80338e-17 0 -1.63018e-12 0 9.4832e-29
1380 10 0.001 0.0225 0 -0.0290101 -6.80338e-17 0 3.90609e-12 0 3.33499e-28
31 1 0.001 -0.0225 0 -0.0283725 6.80338e-17 0 -2.77837e-12 0 2.45233e-28
32 1 0.001 -0.0225 0 -0.0277349 6.80338e-17 0 -2.71625e-12 0 4.03425e-28
181 2 0.001 -0.0175 0 -0.0283725 6.80338e-17 0 -2.77837e-12 0 2.45233e-28
182 2 0.001 -0.0175 0 -0.0277349 6.80338e-17 0 -2.71625e-12 0 4.03425e-28
331 3 0.001 -0.0125 0 -0.0283725 -6.80338e-17 0 -2.77837e-12 0 2.45233e-28
332 3 0.001 -0.0125 0 -0.0277349 -6.80338e-17 0 -2.71625e-12 0 4.03425e-28
481 4 0.001 -0.00750001 0 -0.0283725 -6.80338e-17 0 -2.77837e-12 0 2.45233e-28
482 4 0.001 -0.00750001 0 -0.0277349 -6.80338e-17 0 -2.71625e-12 0 4.03425e-28
631 5 0.001 -0.00250001 0 -0.0283725 -6.80338e-17 0 -2.77837e-12 0 2.45233e-28
632 5 0.001 -0.00250001 0 -0.0277349 -6.80338e-17 0 -2.71625e-12 0 4.03425e-28
781 6 0.001 0.00250001 0 -0.0283725 6.80338e-17 0 -2.77837e-12 0 2.45233e-28
782 6 0.001 0.00250001 0 -0.0277349 6.80338e-17 0 -2.71625e-12 0 4.03425e-28
931 7 0.001 0.00749999 0 -0.0283725 -6.80338e-17 0 -2.77837e-12 0 2.45233e-28
932 7 0.001 0.00749999 0 -0.0277349 -6.80338e-17 0 -2.71625e-12 0 4.03425e-28
1081 8 0.001 0.0125 0 -0.0283725 6.80338e-17 0 -2.77837e-12 0 2.45233e-28
1082 8 0.001 0.0125 0 -0.0277349 6.80338e-17 0 -2.71625e-12 0 4.03425e-28
1231 9 0.001 0.0175 0 -0.0283725 -6.80338e-17 0 -2.77837e-12 0 2.45233e-28
1232 9 0.001 0.0175 0 -0.0277349 -6.80338e-17 0 -2.71625e-12 0 4.03425e-28
1381 10 0.001 0.0225 0 -0.0283725 -6.80338e-17 0 -2.77837e-12 0 2.45233e-28
1382 10 0.001 0.0225 0 -0.0277349 -6.80338e-17 0 -2.71625e-12 0 4.03425e-28
33 1 0.001 -0.0225 0 -0.0270973 6.80338e-17 0 6.18468e-12 0 7.93977e-28
34 1 0.001 -0.0225 0 -0.0264597 6.80338e-17 0 -4.67894e-12 0 5.01428e-28
35 1 0.001 -0.0225 0 -0.0258221 6.80338e-17 0 3.05126e-12 0 1.93513e-28
183 2 0.001 -0.0175 0 -0.0270973 6.80338e-17 0 6.18468e-12 0 7.93977e-28
184 2 0.001 -0.0175 0 -0.0264597 6.80338e-17 0 -4.67894e-12 0 5.01428e-28
185 2 0.001 -0.0175 0 -0.0258221 6.80338e-17 0 3.05126e-12 0 1.93513e-28
333 3 0.001 -0.0125 0 -0.0270973 -6.80338e-17 0 6.18468e-12 0 7.93977e-28
334 3 0.001 -0.0125 0 -0.0264597 -6.80338e-17 0 -4.67894e-12 0 5.01428e-28
335 3 0.001 -0.0125 0 -0.0258221 -6.80338e-17 0 3.05126e-12 0 1.93513e-28
483 4 0.001 -0.00750001 0 -0.0270973 -6.80338e-17 0 6.18468e-12 0 7.93977e-28
484 4 0.001 -0.00750001 0 -0.0264597 -6.80338e-17 0 -4.67894e-12 0 5.01428e-28
485 4 0.001 -0.00750001 0 -0.0258221 -6.80338e-17 0 3.05126e-12 0 1.93513e-28
633 5 0.001 -0.00250001 0 -0.0270973 -6.80338e-17 0 6.18468e-12 0 7.93977e-28
634 5 0.001 -0.00250001 0 -0.0264597 -6.80338e-17 0 -4.67894e-12 0 5.01428e-28
635 5 0.001 -0.00250001 0 -0.0258221 -6.80338e-17 0 3.05126e-12 0 1.93513e-28
783 6 0.001 0.00250001 0 -0.0270973 6.80338e-17 0 6.18468e-12 0 7.93977e-28
784 6 0.001 0.00250001 0 -0.0264597 6.80338e-17 0 -4.67894e-12 0 5.01428e-28
785 6 0.001 0.00250001 0 -0.0258221 6.80338e-17 0 3.05126e-12 0 1.93513e-28
933 7 0.001 0.00749999 0 -0.0270973 -6.80338e-17 0 6.18468e-12 0 7.93977e-28
934 7 0.001 0.00749999 0 -0.0264597 -6.80338e-17 0 -4.67894e-12 0 5.01428e-28
935 7 0.001 0.00749999 0 -0.0258221 -6.80338e-17 0 3.05126e-12 0 1.93513e-28
1083 8 0.001 0.0125 0 -0.0270973 6.80338e-17 0 6.18468e-12 0 7.93977e-28
1084 8 0.001 0.0125 0 -0.0264597 6.80338e-17 0 -4.67894e-12 0 5.01428e-28
1085 8 0.001 0.0125 0 -0.0258221 6.80338e-17 0 3.05126e-12 0 1.93513e-28
1233 9 0.001 0.0175 0 -0.0270973 -6.80338e-17 0 6.18468e-12 0 7.93977e-28
1234 9 0.001 0.0175 0 -0.0264597 -6.80338e-17 0 -4.67894e-12 0 5.01428e-28
1235 9 0.001 0.0175 0 -0.0258221 -6.80338e-17 0 3.05126e-12 0 1.93513e-28
1383 10 0.001 0.0225 0 -0.0270973 -6.80338e-17 0 6.18468e-12 0 7.93977e-28
1384 10 0.001 0.0225 0 -0.0264597 -6.80338e-17 0 -4.67894e-12 0 5.01428e-28
1385 10 0.001 0.0225 0 -0.0258221 -6.80338e-17 0 3.05126e-12 0 1.93513e-28
36 1 0.001 -0.0225 0 -0.0251846 6.80338e-17 0 1.44086e-12 0 4.38272e-28
37 1 0.001 -0.0225 0 -0.024547 6.80338e-17 0 -6.81199e-12 0 9.84116e-28
186 2 0.001 -0.0175 0 -0.0251846 6.80338e-17 0 1.44086e-12 0 4.38272e-28
187 2 0.001 -0.0175 0 -0.024547 6.80338e-17 0 -6.81199e-12 0 9.84116e-28
336 3 0.001 -0.0125 0 -0.0251846 -6.80338e-17 0 1.44086e-12 0 4.38272e-28
337 3 0.001 -0.0125 0 -0.024547 -6.80338e-17 0 -6.81199e-12 0 9.84116e-28
486 4 0.001 -0.00750001 0 -0.0251846 -6.80338e-17 0 1.44086e-12 0 4.38272e-28
487 4 0.001 -0.00750001 0 -0.024547 -6.80338e-17 0 -6.81199e-12 0 9.84116e-28
636 5 0.001 -0.00250001 0 -0.0251846 -6.80338e-17 0 1.44086e-12 0 4.38272e-28
637 5 0.001 -0.00250001 0 -0.024547 -6.80338e-17 0 -6.81199e-12 0 9.84116e-28
786 6 0.001 0.00250001 0 -0.0251846 6.80338e-17 0 1.44086e-12 0 4.38272e-28
787 6 0.001 0.00250001 0 -0.024547 6.80338e-17 0 -6.81199e-12 0 9.84116e-28
936 7 0.001 0.00749999 0 -0.0251846 -6.80338e-17 0 1.44086e-12 0 4.38272e-28
937 7 0.001 0.00749999 0 -0.024547 -6.80338e-17 0 -6.81199e-12 0 9.84116e-28
1086 8 0.001 0.0125 0 -0.0251846 6.80338e-17 0 1.44086e-12 0 4.38272e-28
1087 8 0.001 0.0125 0 -0.024547 6.80338e-17 0 -6.81199e-12 0 9.84116e-28
1236 9 0.001 0.0175 0 -0.0251846 -6.80338e-17 0 1.44086e-12 0 4.38272e-28
1237 9 0.001 0.0175 0 -0.024547 -6.80338e-17 0 -6.81199e-12 0 9.84116e-28
1386 10 0.001 0.0225 0 -0.0251846 -6.80338e-17 0 1.44086e-12 0 4.38272e-28
1387 10 0.001 0.0225 0 -0.024547 -6.80338e-17 0 -6.81199e-12 0 9.84116e-28
38 1 0.001 -0.0225 0 -0.0239094 6.80338e-17 0 5.28566e-12 0 7.13138e-28
39 1 0.001 -0.0225 0 -0.0232718 6.80338e-17 0 -5.89243e-12 0 9.25052e-28
188 2 0.001 -0.0175 0 -0.0239094 6.80338e-17 0 5.28566e-12 0 7.13138e-28
189 2 0.001 -0.0175 0 -0.0232718 6.80338e-17 0 -5.89243e-12 0 9.25052e-28
338 3 0.001 -0.0125 0 -0.0239094 -6.80338e-17 0 5.28566e-12 0 7.13138e-28
339 3 0.001 -0.0125 0 -0.0232718 -6.80338e-17 0 -5.89243e-12 0 9.25052e-28
488 4 0.001 -0.00750001 0 -0.0239094 -6.80338e-17 0 5.28566e-12 0 7.13138e-28
489 4 0.001 -0.00750001 0 -0.0232718 -6.80338e-17 0 -5.89243e-12 0 9.25052e-28
638 5 0.001 -0.00250001 0 -0.0239094 -6.80338e-17 0 5.28566e-12 0 7.13138e-28
639 5 0.001 -0.00250001 0 -0.0232718 -6.80338e-17 0 -5.89243e-12 0 9.25052e-28
788 6 0.001 0.00250001 0 -0.0239094 6.80338e-17 0 5.28566e-12 0 7.13138e-28
789 6 0.001 0.00250001 0 -0.0232718 6.80338e-17 0 -5.89243e-12 0 9.25052e-28
938 7 0.001 0.00749999 0 -0.0239094 -6.80338e-17 0 5.28566e-12 0 7.13138e-28
939 7 0.001 0.00749999 0 -0.0232718 -6.80338e-17 0 -5.89243e-12 0 9.25052e-28
1088 8 0.001 0.0125 0 -0.0239094 6.80338e-17 0 5.28566e-12 0 7.13138e-28
1089 8 0.001 0.0125 0 -0.0232718 6.80338e-17 0 -5.89243e-12 0 9.25052e-28
1238 9 0.001 0.0175 0 -0.0239094 -6.80338e-17 0 5.28566e-12 0 7.13138e-28
1239 9 0.001 0.0175 0 -0.0232718 -6.80338e-17 0 -5.89243e-12 0 9.25052e-28
1388 10 0.001 0.0225 0 -0.0239094 -6.80338e-17 0 5.28566e-12 0 7.13138e-28
1389 10 0.001 0.0225 0 -0.0232718 -6.80338e-17 0 -5.89243e-12 0 9.25052e-28
40 1 0.001 -0.0225 0 -0.0226342 6.80338e-17 0 9.17357e-12 0 1.74686e-27
41 1 0.001 -0.0225 0 -0.0219966 6.80338e-17 0 -1.0449e-11 0 2.29211e-27
42 1 0.001 -0.0225 0 -0.0213591 6.80338e-17 0 8.71386e-12 0 1.74633e-27
190 2 0.001 -0.0175 0 -0.0226342 6.80338e-17 0 9.17357e-12 0 1.74686e-27
191 2 0.001 -0.0175 0 -0.0219966 6.80338e-17 0 -1.0449e-11 0 2.29211e-27
192 2 0.001 -0.0175 0 -0.0213591 6.80338e-17 0 8.71386e-12 0 1.74633e-27