ITEM: TIMESTEP
3300000
ITEM: NUMBER OF ATOMS
1500
ITEM: BOX BOUNDS ff ff ff
-2.5000000000000001e-02 2.5000000000000001e-02
-5.0000000000000001e-03 5.0000000000000001e-03
-5.0000000000000003e-02 5.0000000000000003e-02
ITEM: ATOMS id type radius x y z fx fy fz c_bendingE c_stretchingE
1 1 0.001 -0.0225 0 -0.0475 2.7719e-25 0 4.00964e-12 0 6.67471e-28
151 2 0.001 -0.0175 0 -0.0475 2.7719e-25 0 4.00964e-12 0 6.67471e-28
301 3 0.001 -0.0125 0 -0.0475 -2.7719e-25 0 4.00964e-12 0 6.67471e-28
451 4 0.001 -0.00750003 0 -0.0475 -2.7719e-25 0 4.00964e-12 0 6.67471e-28
601 5 0.001 -0.00250003 0 -0.0475 -2.7719e-25 0 4.00964e-12 0 6.67471e-28
751 6 0.001 0.00250003 0 -0.0475 2.7719e-25 0 4.00964e-12 0 6.67471e-28
901 7 0.001 0.00749997 0 -0.0475 -2.7719e-25 0 4.00964e-12 0 6.67471e-28
1051 8 0.001 0.0125 0 -0.0475 2.7719e-25 0 4.00964e-12 0 6.67471e-28
1201 9 0.001 0.0175 0 -0.0475 -2.7719e-25 0 4.00964e-12 0 6.67471e-28
1351 10 0.001 0.0225 0 -0.0475 -2.7719e-25 0 4.00964e-12 0 6.67471e-28
2 1 0.001 -0.0225 0 -0.0468624 2.7719e-25 0 -3.25974e-12 0 6.90838e-28
3 1 0.001 -0.0225 0 -0.0462248 2.7719e-25 0 -3.17521e-12 0 2.67638e-28
4 1 0.001 -0.0225 0 -0.0455872 2.7719e-25 0 2.54878e-12 0 2.44903e-28
152 2 0.001 -0.0175 0 -0.0468624 2.7719e-25 0 -3.25974e-12 0 6.90838e-28
153 2 0.001 -0.0175 0 -0.0462248 2.7719e-25 0 -3.17521e-12 0 2.67638e-28
154 2 0.001 -0.0175 0 -0.0455872 2.7719e-25 0 2.54878e-12 0 2.44903e-28
302 3 0.001 -0.0125 0 -0.0468624 -2.7719e-25 0 -3.25974e-12 0 6.90838e-28
303 3 0.001 -0.0125 0 -0.0462248 -2.7719e-25 0 -3.17521e-12 0 2.67638e-28
304 3 0.001 -0.0125 0 -0.0455872 -2.7719e-25 0 2.54878e-12 0 2.44903e-28
452 4 0.001 -0.00750003 0 -0.0468624 -2.7719e-25 0 -3.25974e-12 0 6.90838e-28
453 4 0.001 -0.00750003 0 -0.0462248 -2.7719e-25 0 -3.17521e-12 0 2.67638e-28
454 4 0.001 -0.00750003 0 -0.0455872 -2.7719e-25 0 2.54878e-12 0 2.44903e-28
602 5 0.001 -0.00250003 0 -0.0468624 -2.7719e-25 0 -3.25974e-12 0 6.90838e-28
603 5 0.001 -0.00250003 0 -0.0462248 -2.7719e-25 0 -3.17521e-12 0 2.67638e-28
604 5 0.001 -0.00250003 0 -0.0455872 -2.7719e-25 0 2.54878e-12 0 2.44903e-28
752 6 0.001 0.00250003 0 -0.0468624 2.7719e-25 0 -3.25974e-12 0 6.90838e-28
753 6 0.001 0.00250003 0 -0.0462248 2.7719e-25 0 -3.17521e-12 0 2.67638e-28
754 6 0.001 0.00250003 0 -0.0455872 2.7719e-25 0 2.54878e-12 0 2.44903e-28
902 7 0.001 0.00749997 0 -0.0468624 -2.7719e-25 0 -3.25974e-12 0 6.90838e-28
903 7 0.001 0.00749997 0 -0.0462248 -2.7719e-25 0 -3.17521e-12 0 2.67638e-28
904 7 0.001 0.00749997 0 -0.0455872 -2.7719e-25 0 2.54878e-12 0 2.44903e-28
1052 8 0.001 0.0125 0 -0.0468624 2.7719e-25 0 -3.25974e-12 0 6.90838e-28
1053 8 0.001 0.0125 0 -0.0462248 2.7719e-25 0 -3.17521e-12 0 2.67638e-28
1054 8 0.001 0.0125 0 -0.0455872 2.7719e-25 0 2.54878e-12 0 2.44903e-28
1202 9 0.001 0.0175 0 -0.0468624 -2.7719e-25 0 -3.25974e-12 0 6.90838e-28
1203 9 0.001 0.0175 0 -0.0462248 -2.7719e-25 0 -3.17521e-12 0 2.67638e-28
1204 9 0.001 0.0175 0 -0.0455872 -2.7719e-25 0 2.54878e-12 0 2.44903e-28
1352 10 0.001 0.0225 0 -0.0468624 -2.7719e-25 0 -3.25974e-12 0 6.90838e-28
1353 10 0.001 0.0225 0 -0.0462248 -2.7719e-25 0 -3.17521e-12 0 2.67638e-28
1354 10 0.001 0.0225 0 -0.0455872 -2.7719e-25 0 2.54878e-12 0 2.44903e-28
5 1 0.001 -0.0225 0 -0.0449497 2.7719e-25 0 -8.7751e-13 0 2.42435e-29
6 1 0.001 -0.0225 0 -0.0443121 2.7719e-25 0 4.18235e-13 0 2.83055e-29
155 2 0.001 -0.0175 0 -0.0449497 2.7719e-25 0 -8.7751e-13 0 2.42435e-29
156 2 0.001 -0.0175 0 -0.0443121 2.7719e-25 0 4.18235e-13 0 2.83055e-29
305 3 0.001 -0.0125 0 -0.0449497 -2.7719e-25 0 -8.7751e-13 0 2.42435e-29
306 3 0.001 -0.0125 0 -0.0443121 -2.7719e-25 0 4.18235e-13 0 2.83055e-29
455 4 0.001 -0.00750003 0 -0.0449497 -2.7719e-25 0 -8.7751e-13 0 2.42435e-29
456 4 0.001 -0.00750003 0 -0.0443121 -2.7719e-25 0 4.18235e-13 0 2.83055e-29
605 5 0.001 -0.00250003 0 -0.0449497 -2.7719e-25 0 -8.7751e-13 0 2.42435e-29
606 5 0.001 -0.00250003 0 -0.0443121 -2.7719e-25 0 4.18235e-13 0 2.83055e-29
755 6 0.001 0.00250003 0 -0.0449497 2.7719e-25 0 -8.7751e-13 0 2.42435e-29
756 6 0.001 0.00250003 0 -0.0443121 2.7719e-25 0 4.18235e-13 0 2.83055e-29
905 7 0.001 0.00749997 0 -0.0449497 -2.7719e-25 0 -8.7751e-13 0 2.42435e-29
906 7 0.001 0.00749997 0 -0.0443121 -2.7719e-25 0 4.18235e-13 0 2.83055e-29
1055 8 0.001 0.0125 0 -0.0449497 2.7719e-25 0 -8.7751e-13 0 2.42435e-29
1056 8 0.001 0.0125 0 -0.0443121 2.7719e-25 0 4.18235e-13 0 2.83055e-29
1205 9 0.001 0.0175 0 -0.0449497 -2.7719e-25 0 -8.7751e-13 0 2.42435e-29
1206 9 0.001 0.0175 0 -0.0443121 -2.7719e-25 0 4.18235e-13 0 2.83055e-29
1355 10 0.001 0.0225 0 -0.0449497 -2.7719e-25 0 -8.7751e-13 0 2.42435e-29
1356 10 0.001 0.0225 0 -0.0443121 -2.7719e-25 0 4.18235e-13 0 2.83055e-29
7 1 0.001 -0.0225 0 -0.0436745 2.7719e-25 0 2.17304e-12 0 1.44748e-28
8 1 0.001 -0.0225 0 -0.0430369 2.7719e-25 0 -4.2627e-12 0 3.84325e-28
157 2 0.001 -0.0175 0 -0.0436745 2.7719e-25 0 2.17304e-12 0 1.44748e-28
158 2 0.001 -0.0175 0 -0.0430369 2.7719e-25 0 -4.2627e-12 0 3.84325e-28
307 3 0.001 -0.0125 0 -0.0436745 -2.7719e-25 0 2.17304e-12 0 1.44748e-28
308 3 0.001 -0.0125 0 -0.0430369 -2.7719e-25 0 -4.2627e-12 0 3.84325e-28
457 4 0.001 -0.00750003 0 -0.0436745 -2.7719e-25 0 2.17304e-12 0 1.44748e-28
458 4 0.001 -0.00750003 0 -0.0430369 -2.7719e-25 0 -4.2627e-12 0 3.84325e-28
607 5 0.001 -0.00250003 0 -0.0436745 -2.7719e-25 0 2.17304e-12 0 1.44748e-28
608 5 0.001 -0.00250003 0 -0.0430369 -2.7719e-25 0 -4.2627e-12 0 3.84325e-28
757 6 0.001 0.00250003 0 -0.0436745 2.7719e-25 0 2.17304e-12 0 1.44748e-28
758 6 0.001 0.00250003 0 -0.0430369 2.7719e-25 0 -4.2627e-12 0 3.84325e-28
907 7 0.001 0.00749997 0 -0.0436745 -2.7719e-25 0 2.17304e-12 0 1.44748e-28
908 7 0.001 0.00749997 0 -0.0430369 -2.7719e-25 0 -4.2627e-12 0 3.84325e-28
1057 8 0.001 0.0125 0 -0.0436745 2.7719e-25 0 2.17304e-12 0 1.44748e-28
1058 8 0.001 0.0125 0 -0.0430369 2.7719e-25 0 -4.2627e-12 0 3.84325e-28
1207 9 0.001 0.0175 0 -0.0436745 -2.7719e-25 0 2.17304e-12 0 1.44748e-28
1208 9 0.001 0.0175 0 -0.0430369 -2.7719e-25 0 -4.2627e-12 0 3.84325e-28
1357 10 0.001 0.0225 0 -0.0436745 -2.7719e-25 0 2.17304e-12 0 1.44748e-28
1358 10 0.001 0.0225 0 -0.0430369 -2.7719e-25 0 -4.2627e-12 0 3.84325e-28
9 1 0.001 -0.0225 0 -0.0423993 2.7719e-25 0 4.1779e-12 0 3.71869e-28
10 1 0.001 -0.0225 0 -0.0417617 2.7719e-25 0 -4.63851e-12 0 4.73221e-28
11 1 0.001 -0.0225 0 -0.0411242 2.7719e-25 0 4.72343e-12 0 4.85676e-28
159 2 0.001 -0.0175 0 -0.0423993 2.7719e-25 0 4.1779e-12 0 3.71869e-28
160 2 0.001 -0.0175 0 -0.0417617 2.7719e-25 0 -4.63851e-12 0 4.73221e-28
161 2 0.001 -0.0175 0 -0.0411242 2.7719e-25 0 4.72343e-12 0 4.85676e-28
309 3 0.001 -0.0125 0 -0.0423993 -2.7719e-25 0 4.1779e-12 0 3.71869e-28
310 3 0.001 -0.0125 0 -0.0417617 -2.7719e-25 0 -4.63851e-12 0 4.73221e-28
311 3 0.001 -0.0125 0 -0.0411242 -2.7719e-25 0 4.72343e-12 0 4.85676e-28
459 4 0.001 -0.00750003 0 -0.0423993 -2.7719e-25 0 4.1779e-12 0 3.71869e-28
460 4 0.001 -0.00750003 0 -0.0417617 -2.7719e-25 0 -4.63851e-12 0 4.73221e-28
461 4 0.001 -0.00750003 0 -0.0411242 -2.7719e-25 0 4.72343e-12 0 4.85676e-28
609 5 0.001 -0.00250003 0 -0.0423993 -2.7719e-25 0 4.1779e-12 0 3.71869e-28
610 5 0.001 -0.00250003 0 -0.0417617 -2.7719e-25 0 -4.63851e-12 0 4.73221e-28
611 5 0.001 -0.00250003 0 -0.0411242 -2.7719e-25 0 4.72343e-12 0 4.85676e-28
759 6 0.001 0.00250003 0 -0.0423993 2.7719e-25 0 4.1779e-12 0 3.71869e-28
760 6 0.001 0.00250003 0 -0.0417617 2.7719e-25 0 -4.63851e-12 0 4.73221e-28
761 6 0.001 0.00250003 0 -0.0411242 2.7719e-25 0 4.72343e-12 0 4.85676e-28
909 7 0.001 0.00749997 0 -0.0423993 -2.7719e-25 0 4.1779e-12 0 3.71869e-28
910 7 0.001 0.00749997 0 -0.0417617 -2.7719e-25 0 -4.63851e-12 0 4.73221e-28
911 7 0.001 0.00749997 0 -0.0411242 -2.7719e-25 0 4.72343e-12 0 4.85676e-28
1059 8 0.001 0.0125 0 -0.0423993 2.7719e-25 0 4.1779e-12 0 3.71869e-28
1060 8 0.001 0.0125 0 -0.0417617 2.7719e-25 0 -4.63851e-12 0 4.73221e-28
1061 8 0.001 0.0125 0 -0.0411242 2.7719e-25 0 4.72343e-12 0 4.85676e-28
1209 9 0.001 0.0175 0 -0.0423993 -2.7719e-25 0 4.1779e-12 0 3.71869e-28
1210 9 0.001 0.0175 0 -0.0417617 -2.7719e-25 0 -4.63851e-12 0 4.73221e-28
1211 9 0.001 0.0175 0 -0.0411242 -2.7719e-25 0 4.72343e-12 0 4.85676e-28
1359 10 0.001 0.0225 0 -0.0423993 -2.7719e-25 0 4.1779e-12 0 3.71869e-28
1360 10 0.001 0.0225 0 -0.0417617 -2.7719e-25 0 -4.63851e-12 0 4.73221e-28
1361 10 0.001 0.0225 0 -0.0411242 -2.7719e-25 0 4.72343e-12 0 4.85676e-28
12 1 0.001 -0.0225 0 -0.0404866 2.7719e-25 0 -2.29915e-12 0 1.489e-28
13 1 0.001 -0.0225 0 -0.039849 2.7719e-25 0 7.1154e-13 0 1.14162e-29
162 2 0.001 -0.0175 0 -0.0404866 2.7719e-25 0 -2.29915e-12 0 1.489e-28
163 2 0.001 -0.0175 0 -0.039849 2.7719e-25 0 7.1154e-13 0 1.14162e-29
312 3 0.001 -0.0125 0 -0.0404866 -2.7719e-25 0 -2.29915e-12 0 1.489e-28
313 3 0.001 -0.0125 0 -0.039849 -2.7719e-25 0 7.1154e-13 0 1.14162e-29
462 4 0.001 -0.00750003 0 -0.0404866 -2.7719e-25 0 -2.29915e-12 0 1.489e-28
463 4 0.001 -0.00750003 0 -0.039849 -2.7719e-25 0 7.1154e-13 0 1.14162e-29
612 5 0.001 -0.00250003 0 -0.0404866 -2.7719e-25 0 -2.29915e-12 0 1.489e-28
613 5 0.001 -0.00250003 0 -0.039849 -2.7719e-25 0 7.1154e-13 0 1.14162e-29
762 6 0.001 0.00250003 0 -0.0404866 2.7719e-25 0 -2.29915e-12 0 1.489e-28
763 6 0.001 0.00250003 0 -0.039849 2.7719e-25 0 7.1154e-13 0 1.14162e-29
912 7 0.001 0.00749997 0 -0.0404866 -2.7719e-25 0 -2.29915e-12 0 1.489e-28
913 7 0.001 0.00749997 0 -0.039849 -2.7719e-25 0 7.1154e-13 0 1.14162e-29
1062 8 0.001 0.0125 0 -0.0404866 2.7719e-25 0 -2.29915e-12 0 1.489e-28
1063 8 0.001 0.0125 0 -0.039849 2.7719e-25 0 7.1154e-13 0 1.14162e-29
1212 9 0.001 0.0175 0 -0.0404866 -2.7719e-25 0 -2.29915e-12 0 1.489e-28
1213 9 0.001 0.0175 0 -0.039849 -2.7719e-25 0 7.1154e-13 0 1.14162e-29
1362 10 0.001 0.0225 0 -0.0404866 -2.7719e-25 0 -2.29915e-12 0 1.489e-28
1363 10 0.001 0.0225 0 -0.039849 -2.7719e-25 0 7.1154e-13 0 1.14162e-29
14 1 0.001 -0.0225 0 -0.0392114 2.7719e-25 0 7.52177e-13 0 4.4164e-29
15 1 0.001 -0.0225 0 -0.0385738 2.7719e-25 0 -3.38613e-12 0 2.77522e-28
16 1 0.001 -0.0225 0 -0.0379362 2.7719e-25 0 5.34936e-12 0 6.00897e-28
164 2 0.001 -0.0175 0 -0.0392114 2.7719e-25 0 7.52177e-13 0 4.4164e-29
165 2 0.001 -0.0175 0 -0.0385738 2.7719e-25 0 -3.38613e-12 0 2.77522e-28
166 2 0.001 -0.0175 0 -0.0379362 2.7719e-25 0 5.34936e-12 0 6.00897e-28
314 3 0.001 -0.0125 0 -0.0392114 -2.7719e-25 0 7.52177e-13 0 4.4164e-29
315 3 0.001 -0.0125 0 -0.0385738 -2.7719e-25 0 -3.38613e-12 0 2.77522e-28
316 3 0.001 -0.0125 0 -0.0379362 -2.7719e-25 0 5.34936e-12 0 6.00897e-28
464 4 0.001 -0.00750003 0 -0.0392114 -2.7719e-25 0 7.52177e-13 0 4.4164e-29
465 4 0.001 -0.00750003 0 -0.0385738 -2.7719e-25 0 -3.38613e-12 0 2.77522e-28
466 4 0.001 -0.00750003 0 -0.0379362 -2.7719e-25 0 5.34936e-12 0 6.00897e-28
614 5 0.001 -0.00250003 0 -0.0392114 -2.7719e-25 0 7.52177e-13 0 4.4164e-29
615 5 0.001 -0.00250003 0 -0.0385738 -2.7719e-25 0 -3.38613e-12 0 2.77522e-28
616 5 0.001 -0.00250003 0 -0.0379362 -2.7719e-25 0 5.34936e-12 0 6.00897e-28
764 6 0.001 0.00250003 0 -0.0392114 2.7719e-25 0 7.52177e-13 0 4.4164e-29
765 6 0.001 0.00250003 0 -0.0385738 2.7719e-25 0 -3.38613e-12 0 2.77522e-28
766 6 0.001 0.00250003 0 -0.0379362 2.7719e-25 0 5.34936e-12 0 6.00897e-28
914 7 0.001 0.00749997 0 -0.0392114 -2.7719e-25 0 7.52177e-13 0 4.4164e-29
915 7 0.001 0.00749997 0 -0.0385738 -2.7719e-25 0 -3.38613e-12 0 2.77522e-28
916 7 0.001 0.00749997 0 -0.0379362 -2.7719e-25 0 5.34936e-12 0 6.00897e-28
1064 8 0.001 0.0125 0 -0.0392114 2.7719e-25 0 7.52177e-13 0 4.4164e-29
1065 8 0.001 0.0125 0 -0.0385738 2.7719e-25 0 -3.38613e-12 0 2.77522e-28
1066 8 0.001 0.0125 0 -0.0379362 2.7719e-25 0 5.34936e-12 0 6.00897e-28
1214 9 0.001 0.0175 0 -0.0392114 -2.7719e-25 0 7.52177e-13 0 4.4164e-29
1215 9 0.001 0.0175 0 -0.0385738 -2.7719e-25 0 -3.38613e-12 0 2.77522e-28
1216 9 0.001 0.0175 0 -0.0379362 -2.7719e-25 0 5.34936e-12 0 6.00897e-28
1364 10 0.001 0.0225 0 -0.0392114 -2.7719e-25 0 7.52177e-13 0 4.4164e-29
1365 10 0.001 0.0225 0 -0.0385738 -2.7719e-25 0 -3.38613e-12 0 2.77522e-28
1366 10 0.001 0.0225 0 -0.0379362 -2.7719e-25 0 5.34936e-12 0 6.00897e-28
17 1 0.001 -0.0225 0 -0.0372987 2.7719e-25 0 -6.60307e-12 0 9.14284e-28
18 1 0.001 -0.0225 0 -0.0366611 2.7719e-25 0 6.97966e-12 0 1.01275e-27
167 2 0.001 -0.0175 0 -0.0372987 2.7719e-25 0 -6.60307e-12 0 9.14284e-28
168 2 0.001 -0.0175 0 -0.0366611 2.7719e-25 0 6.97966e-12 0 1.01275e-27
317 3 0.001 -0.0125 0 -0.0372987 -2.7719e-25 0 -6.60307e-12 0 9.14284e-28
318 3 0.001 -0.0125 0 -0.0366611 -2.7719e-25 0 6.97966e-12 0 1.01275e-27
467 4 0.001 -0.00750003 0 -0.0372987 -2.7719e-25 0 -6.60307e-12 0 9.14284e-28
468 4 0.001 -0.00750003 0 -0.0366611 -2.7719e-25 0 6.97966e-12 0 1.01275e-27
617 5 0.001 -0.00250003 0 -0.0372987 -2.7719e-25 0 -6.60307e-12 0 9.14284e-28
618 5 0.001 -0.00250003 0 -0.0366611 -2.7719e-25 0 6.97966e-12 0 1.01275e-27
767 6 0.001 0.00250003 0 -0.0372987 2.7719e-25 0 -6.60307e-12 0 9.14284e-28
768 6 0.001 0.00250003 0 -0.0366611 2.7719e-25 0 6.97966e-12 0 1.01275e-27
917 7 0.001 0.00749997 0 -0.0372987 -2.7719e-25 0 -6.60307e-12 0 9.14284e-28
918 7 0.001 0.00749997 0 -0.0366611 -2.7719e-25 0 6.97966e-12 0 1.01275e-27
1067 8 0.001 0.0125 0 -0.0372987 2.7719e-25 0 -6.60307e-12 0 9.14284e-28
1068 8 0.001 0.0125 0 -0.0366611 2.7719e-25 0 6.97966e-12 0 1.01275e-27
1217 9 0.001 0.0175 0 -0.0372987 -2.7719e-25 0 -6.60307e-12 0 9.14284e-28
1218 9 0.001 0.0175 0 -0.0366611 -2.7719e-25 0 6.97966e-12 0 1.01275e-27
1367 10 0.001 0.0225 0 -0.0372987 -2.7719e-25 0 -6.60307e-12 0 9.14284e-28
1368 10 0.001 0.0225 0 -0.0366611 -2.7719e-25 0 6.97966e-12 0 1.01275e-27
19 1 0.001 -0.0225 0 -0.0360235 2.7719e-25 0 -5.93448e-12 0 7.42528e-28
20 1 0.001 -0.0225 0 -0.0353859 2.7719e-25 0 6.51921e-12 0 9.19033e-28
169 2 0.001 -0.0175 0 -0.0360235 2.7719e-25 0 -5.93448e-12 0 7.42528e-28
170 2 0.001 -0.0175 0 -0.0353859 2.7719e-25 0 6.51921e-12 0 9.19033e-28
319 3 0.001 -0.0125 0 -0.0360235 -2.7719e-25 0 -5.93448e-12 0 7.42528e-28
320 3 0.001 -0.0125 0 -0.0353859 -2.7719e-25 0 6.51921e-12 0 9.19033e-28
469 4 0.001 -0.00750003 0 -0.0360235 -2.7719e-25 0 -5.93448e-12 0 7.42528e-28
470 4 0.001 -0.00750003 0 -0.0353859 -2.7719e-25 0 6.51921e-12 0 9.19033e-28
619 5 0.001 -0.00250003 0 -0.0360235 -2.7719e-25 0 -5.93448e-12 0 7.42528e-28
620 5 0.001 -0.00250003 0 -0.0353859 -2.7719e-25 0 6.51921e-12 0 9.19033e-28
769 6 0.001 0.00250003 0 -0.0360235 2.7719e-25 0 -5.93448e-12 0 7.42528e-28
770 6 0.001 0.00250003 0 -0.0353859 2.7719e-25 0 6.51921e-12 0 9.19033e-28
919 7 0.001 0.00749997 0 -0.0360235 -2.7719e-25 0 -5.93448e-12 0 7.42528e-28
920 7 0.001 0.00749997 0 -0.0353859 -2.7719e-25 0 6.51921e-12 0 9.19033e-28
1069 8 0.001 0.0125 0 -0.0360235 2.7719e-25 0 -5.93448e-12 0 7.42528e-28
1070 8 0.001 0.0125 0 -0.0353859 2.7719e-25 0 6.51921e-12 0 9.19033e-28
1219 9 0.001 0.0175 0 -0.0360235 -2.7719e-25 0 -5.93448e-12 0 7.42528e-28
1220 9 0.001 0.0175 0 -0.0353859 -2.7719e-25 0 6.51921e-12 0 9.19033e-28
1369 10 0.001 0.0225 0 -0.0360235 -2.7719e-25 0 -5.93448e-12 0 7.42528e-28
1370 10 0.001 0.0225 0 -0.0353859 -2.7719e-25 0 6.51921e-12 0 9.19033e-28
21 1 0.001 -0.0225 0 -0.0347483 2.7719e-25 0 -3.38527e-12 0 6.521e-28
22 1 0.001 -0.0225 0 -0.0341107 2.7719e-25 0 -4.09623e-12 0 5.36526e-28
23 1 0.001 -0.0225 0 -0.0334732 2.7719e-25 0 5.89375e-12 0 7.51329e-28
171 2 0.001 -0.0175 0 -0.0347483 2.7719e-25 0 -3.38527e-12 0 6.521e-28
172 2 0.001 -0.0175 0 -0.0341107 2.7719e-25 0 -4.09623e-12 0 5.36526e-28
173 2 0.001 -0.0175 0 -0.0334732 2.7719e-25 0 5.89375e-12 0 7.51329e-28
321 3 0.001 -0.0125 0 -0.0347483 -2.7719e-25 0 -3.38527e-12 0 6.521e-28
322 3 0.001 -0.0125 0 -0.0341107 -2.7719e-25 0 -4.09623e-12 0 5.36526e-28
323 3 0.001 -0.0125 0 -0.0334732 -2.7719e-25 0 5.89375e-12 0 7.51329e-28
471 4 0.001 -0.00750003 0 -0.0347483 -2.7719e-25 0 -3.38527e-12 0 6.521e-28
472 4 0.001 -0.00750003 0 -0.0341107 -2.7719e-25 0 -4.09623e-12 0 5.36526e-28
473 4 0.001 -0.00750003 0 -0.0334732 -2.7719e-25 0 5.89375e-12 0 7.51329e-28
621 5 0.001 -0.00250003 0 -0.0347483 -2.7719e-25 0 -3.38527e-12 0 6.521e-28
622 5 0.001 -0.00250003 0 -0.0341107 -2.7719e-25 0 -4.09623e-12 0 5.36526e-28
623 5 0.001 -0.00250003 0 -0.0334732 -2.7719e-25 0 5.89375e-12 0 7.51329e-28
771 6 0.001 0.00250003 0 -0.0347483 2.7719e-25 0 -3.38527e-12 0 6.521e-28
772 6 0.001 0.00250003 0 -0.0341107 2.7719e-25 0 -4.09623e-12 0 5.36526e-28
773 6 0.001 0.00250003 0 -0.0334732 2.7719e-25 0 5.89375e-12 0 7.51329e-28
921 7 0.001 0.00749997 0 -0.0347483 -2.7719e-25 0 -3.38527e-12 0 6.521e-28
922 7 0.001 0.00749997 0 -0.0341107 -2.7719e-25 0 -4.09623e-12 0 5.36526e-28
923 7 0.001 0.00749997 0 -0.0334732 -2.7719e-25 0 5.89375e-12 0 7.51329e-28
1071 8 0.001 0.0125 0 -0.0347483 2.7719e-25 0 -3.38527e-12 0 6.521e-28
1072 8 0.001 0.0125 0 -0.0341107 2.7719e-25 0 -4.09623e-12 0 5.36526e-28
1073 8 0.001 0.0125 0 -0.0334732 2.7719e-25 0 5.89375e-12 0 7.51329e-28
1221 9 0.001 0.0175 0 -0.0347483 -2.7719e-25 0 -3.38527e-12 0 6.521e-28
1222 9 0.001 0.0175 0 -0.0341107 -2.7719e-25 0 -4.09623e-12 0 5.36526e-28
1223 9 0.001 0.0175 0 -0.0334732 -2.7719e-25 0 5.89375e-12 0 7.51329e-28
1371 10 0.001 0.0225 0 -0.0347483 -2.7719e-25 0 -3.38527e-12 0 6.521e-28
1372 10 0.001 0.0225 0 -0.0341107 -2.7719e-25 0 -4.09623e-12 0 5.36526e-28
1373 10 0.001 0.0225 0 -0.0334732 -2.7719e-25 0 5.89375e-12 0 7.51329e-28
24 1 0.001 -0.0225 0 -0.0328356 2.7719e-25 0 -2.46658e-12 0 2.2764e-28
25 1 0.001 -0.0225 0 -0.032198 2.7719e-25 0 8.49846e-14 0 7.52465e-31
174 2 0.001 -0.0175 0 -0.0328356 2.7719e-25 0 -2.46658e-12 0 2.2764e-28
175 2 0.001 -0.0175 0 -0.032198 2.7719e-25 0 8.49846e-14 0 7.52465e-31
324 3 0.001 -0.0125 0 -0.0328356 -2.7719e-25 0 -2.46658e-12 0 2.2764e-28
325 3 0.001 -0.0125 0 -0.032198 -2.7719e-25 0 8.49846e-14 0 7.52465e-31
474 4 0.001 -0.00750003 0 -0.0328356 -2.7719e-25 0 -2.46658e-12 0 2.2764e-28
475 4 0.001 -0.00750003 0 -0.032198 -2.7719e-25 0 8.49846e-14 0 7.52465e-31
624 5 0.001 -0.00250003 0 -0.0328356 -2.7719e-25 0 -2.46658e-12 0 2.2764e-28
625 5 0.001 -0.00250003 0 -0.032198 -2.7719e-25 0 8.49846e-14 0 7.52465e-31
774 6 0.001 0.00250003 0 -0.0328356 2.7719e-25 0 -2.46658e-12 0 2.2764e-28
775 6 0.001 0.00250003 0 -0.032198 2.7719e-25 0 8.49846e-14 0 7.52465e-31
924 7 0.001 0.00749997 0 -0.0328356 -2.7719e-25 0 -2.46658e-12 0 2.2764e-28
925 7 0.001 0.00749997 0 -0.032198 -2.7719e-25 0 8.49846e-14 0 7.52465e-31
1074 8 0.001 0.0125 0 -0.0328356 2.7719e-25 0 -2.46658e-12 0 2.2764e-28
1075 8 0.001 0.0125 0 -0.032198 2.7719e-25 0 8.49846e-14 0 7.52465e-31
1224 9 0.001 0.0175 0 -0.0328356 -2.7719e-25 0 -2.46658e-12 0 2.2764e-28
1225 9 0.001 0.0175 0 -0.032198 -2.7719e-25 0 8.49846e-14 0 7.52465e-31
1374 10 0.001 0.0225 0 -0.0328356 -2.7719e-25 0 -2.46658e-12 0 2.2764e-28
1375 10 0.001 0.0225 0 -0.032198 -2.7719e-25 0 8.49846e-14 0 7.52465e-31
26 1 0.001 -0.0225 0 -0.0315604 2.7719e-25 0 -1.23407e-12 0 6.77264e-29
27 1 0.001 -0.0225 0 -0.0309228 2.7719e-25 0 1.67227e-12 0 7.41253e-29
176 2 0.001 -0.0175 0 -0.0315604 2.7719e-25 0 -1.23407e-12 0 6.77264e-29
177 2 0.001 -0.0175 0 -0.0309228 2.7719e-25 0 1.67227e-12 0 7.41253e-29
326 3 0.001 -0.0125 0 -0.0315604 -2.7719e-25 0 -1.23407e-12 0 6.77264e-29
327 3 0.001 -0.0125 0 -0.0309228 -2.7719e-25 0 1.67227e-12 0 7.41253e-29
476 4 0.001 -0.00750003 0 -0.0315604 -2.7719e-25 0 -1.23407e-12 0 6.77264e-29
477 4 0.001 -0.00750003 0 -0.0309228 -2.7719e-25 0 1.67227e-12 0 7.41253e-29
626 5 0.001 -0.00250003 0 -0.0315604 -2.7719e-25 0 -1.23407e-12 0 6.77264e-29
627 5 0.001 -0.00250003 0 -0.0309228 -2.7719e-25 0 1.67227e-12 0 7.41253e-29
776 6 0.001 0.00250003 0 -0.0315604 2.7719e-25 0 -1.23407e-12 0 6.77264e-29
777 6 0.001 0.00250003 0 -0.0309228 2.7719e-25 0 1.67227e-12 0 7.41253e-29
926 7 0.001 0.00749997 0 -0.0315604 -2.7719e-25 0 -1.23407e-12 0 6.77264e-29
927 7 0.001 0.00749997 0 -0.0309228 -2.7719e-25 0 1.67227e-12 0 7.41253e-29
1076 8 0.001 0.0125 0 -0.0315604 2.7719e-25 0 -1.23407e-12 0 6.77264e-29
1077 8 0.001 0.0125 0 -0.0309228 2.7719e-25 0 1.67227e-12 0 7.41253e-29
1226 9 0.001 0.0175 0 -0.0315604 -2.7719e-25 0 -1.23407e-12 0 6.77264e-29
1227 9 0.001 0.0175 0 -0.0309228 -2.7719e-25 0 1.67227e-12 0 7.41253e-29
1376 10 0.001 0.0225 0 -0.0315604 -2.7719e-25 0 -1.23407e-12 0 6.77264e-29
1377 10 0.001 0.0225 0 -0.0309228 -2.7719e-25 0 1.67227e-12 0 7.41253e-29
28 1 0.001 -0.0225 0 -0.0302852 2.7719e-25 0 -3.57312e-12 0 4.25732e-28
29 1 0.001 -0.0225 0 -0.0296477 2.7719e-25 0 6.79073e-12 0 9.611e-28
30 1 0.001 -0.0225 0 -0.0290101 2.7719e-25 0 -2.29718e-12 0 6.13566e-28
178 2 0.001 -0.0175 0 -0.0302852 2.7719e-25 0 -3.57312e-12 0 4.25732e-28
179 2 0.001 -0.0175 0 -0.0296477 2.7719e-25 0 6.79073e-12 0 9.611e-28
180 2 0.001 -0.0175 0 -0.0290101 2.7719e-25 0 -2.29718e-12 0 6.13566e-28
328 3 0.001 -0.0125 0 -0.0302852 -2.7719e-25 0 -3.57312e-12 0 4.25732e-28
329 3 0.001 -0.0125 0 -0.0296477 -2.7719e-25 0 6.79073e-12 0 9.611e-28
330 3 0.001 -0.0125 0 -0.0290101 -2.7719e-25 0 -2.29718e-12 0 6.13566e-28
478 4 0.001 -0.00750003 0 -0.0302852 -2.7719e-25 0 -3.57312e-12 0 4.25732e-28
479 4 0.001 -0.00750003 0 -0.0296477 -2.7719e-25 0 6.79073e-12 0 9.611e-28
480 4 0.001 -0.00750003 0 -0.0290101 -2.7719e-25 0 -2.29718e-12 0 6.13566e-28
628 5 0.001 -0.00250003 0 -0.0302852 -2.7719e-25 0 -3.57312e-12 0 4.25732e-28
629 5 0.001 -0.00250003 0 -0.0296477 -2.7719e-25 0 6.79073e-12 0 9.611e-28
630 5 0.001 -0.00250003 0 -0.0290101 -2.7719e-25 0 -2.29718e-12 0 6.13566e-28
778 6 0.001 0.00250003 0 -0.0302852 2.7719e-25 0 -3.57312e-12 0 4.25732e-28
779 6 0.001 0.00250003 0 -0.0296477 2.7719e-25 0 6.79073e-12 0 9.611e-28
780 6 0.001 0.00250003 0 -0.0290101 2.7719e-25 0 -2.29718e-12 0 6.13566e-28
928 7 0.001 0.00749997 0 -0.0302852 -2.7719e-25 0 -3.57312e-12 0 4.25732e-28
929 7 0.001 0.00749997 0 -0.0296477 -2.7719e-25 0 6.79073e-12 0 9.611e-28
930 7 0.001 0.00749997 0 -0.0290101 -2.7719e-25 0 -2.29718e-12 0 6.13566e-28
1078 8 0.001 0.0125 0 -0.0302852 2.7719e-25 0 -3.57312e-12 0 4.25732e-28
1079 8 0.001 0.0125 0 -0.0296477 2.7719e-25 0 6.79073e-12 0 9.611e-28
1080 8 0.001 0.0125 0 -0.0290101 2.7719e-25 0 -2.29718e-12 0 6.13566e-28
1228 9 0.001 0.0175 0 -0.0302852 -2.7719e-25 0 -3.57312e-12 0 4.25732e-28
1229 9 0.001 0.0175 0 -0.0296477 -2.7719e-25 0 6.79073e-12 0 9.611e-28
1230 9 0.001 0.0175 0 -0.0290101 -2.7719e-25 0 -2.29718e-12 0 6.13566e-28
1378 10 0.001 0.0225 0 -0.0302852 -2.7719e-25 0 -3.57312e-12 0 4.25732e-28
1379 10 0.001 0.0225 0 -0.0296477 -2.7719e-25 0 6.79073e-12 0 9.611e-28
1380 10 0.001 0.0225 0 -0.0290101 -2.7719e-25 0 -2.29718e-12 0 6.13566e-28
31 1 0.001 -0.0225 0 -0.0283725 2.7719e-25 0 -6.12317e-12 0 1.03126e-27
32 1 0.001 -0.0225 0 -0.0277349 2.7719e-25 0 1.03215e-11 0 2.22182e-27
181 2 0.001 -0.0175 0 -0.0283725 2.7719e-25 0 -6.12317e-12 0 1.03126e-27
182 2 0.001 -0.0175 0 -0.0277349 2.7719e-25 0 1.03215e-11 0 2.22182e-27
331 3 0.001 -0.0125 0 -0.0283725 -2.7719e-25 0 -6.12317e-12 0 1.03126e-27
332 3 0.001 -0.0125 0 -0.0277349 -2.7719e-25 0 1.03215e-11 0 2.22182e-27
481 4 0.001 -0.00750003 0 -0.0283725 -2.7719e-25 0 -6.12317e-12 0 1.03126e-27
482 4 0.001 -0.00750003 0 -0.0277349 -2.7719e-25 0 1.03215e-11 0 2.22182e-27
631 5 0.001 -0.00250003 0 -0.0283725 -2.7719e-25 0 -6.12317e-12 0 1.03126e-27
632 5 0.001 -0.00250003 0 -0.0277349 -2.7719e-25 0 1.03215e-11 0 2.22182e-27
781 6 0.001 0.00250003 0 -0.0283725 2.7719e-25 0 -6.12317e-12 0 1.03126e-27
782 6 0.001 0.00250003 0 -0.0277349 2.7719e-25 0 1.03215e-11 0 2.22182e-27
931 7 0.001 0.00749997 0 -0.0283725 -2.7719e-25 0 -6.12317e-12 0 1.03126e-27
932 7 0.001 0.00749997 0 -0.0277349 -2.7719e-25 0 1.03215e-11 0 2.22182e-27
1081 8 0.001 0.0125 0 -0.0283725 2.7719e-25 0 -6.12317e-12 0 1.03126e-27
1082 8 0.001 0.0125 0 -0.0277349 2.7719e-25 0 1.03215e-11 0 2.22182e-27
1231 9 0.001 0.0175 0 -0.0283725 -2.7719e-25 0 -6.12317e-12 0 1.03126e-27
1232 9 0.001 0.0175 0 -0.0277349 -2.7719e-25 0 1.03215e-11 0 2.22182e-27
1381 10 0.001 0.0225 0 -0.0283725 -2.7719e-25 0 -6.12317e-12 0 1.03126e-27
1382 10 0.001 0.0225 0 -0.0277349 -2.7719e-25 0 1.03215e-11 0 2.22182e-27
33 1 0.001 -0.0225 0 -0.0270973 2.7719e-25 0 -8.96308e-12 0 1.75626e-27
34 1 0.001 -0.0225 0 -0.0264597 2.7719e-25 0 6.58112e-12 0 9.01268e-28
35 1 0.001 -0.0225 0 -0.0258221 2.7719e-25 0 -7.5848e-12 0 1.23027e-27
183 2 0.001 -0.0175 0 -0.0270973 2.7719e-25 0 -8.96308e-12 0 1.75626e-27
184 2 0.001 -0.0175 0 -0.0264597 2.7719e-25 0 6.58112e-12 0 9.01268e-28
185 2 0.001 -0.0175 0 -0.0258221 2.7719e-25 0 -7.5848e-12 0 1.23027e-27
333 3 0.001 -0.0125 0 -0.0270973 -2.7719e-25 0 -8.96308e-12 0 1.75626e-27
334 3 0.001 -0.0125 0 -0.0264597 -2.7719e-25 0 6.58112e-12 0 9.01268e-28
335 3 0.001 -0.0125 0 -0.0258221 -2.7719e-25 0 -7.5848e-12 0 1.23027e-27
483 4 0.001 -0.00750003 0 -0.0270973 -2.7719e-25 0 -8.96308e-12 0 1.75626e-27
484 4 0.001 -0.00750003 0 -0.0264597 -2.7719e-25 0 6.58112e-12 0 9.01268e-28
485 4 0.001 -0.00750003 0 -0.0258221 -2.7719e-25 0 -7.5848e-12 0 1.23027e-27
633 5 0.001 -0.00250003 0 -0.0270973 -2.7719e-25 0 -8.96308e-12 0 1.75626e-27
634 5 0.001 -0.00250003 0 -0.0264597 -2.7719e-25 0 6.58112e-12 0 9.01268e-28
635 5 0.001 -0.00250003 0 -0.0258221 -2.7719e-25 0 -7.5848e-12 0 1.23027e-27
783 6 0.001 0.00250003 0 -0.0270973 2.7719e-25 0 -8.96308e-12 0 1.75626e-27
784 6 0.001 0.00250003 0 -0.0264597 2.7719e-25 0 6.58112e-12 0 9.01268e-28
785 6 0.001 0.00250003 0 -0.0258221 2.7719e-25 0 -7.5848e-12 0 1.23027e-27
933 7 0.001 0.00749997 0 -0.0270973 -2.7719e-25 0 -8.96308e-12 0 1.75626e-27
934 7 0.001 0.00749997 0 -0.0264597 -2.7719e-25 0 6.58112e-12 0 9.01268e-28
935 7 0.001 0.00749997 0 -0.0258221 -2.7719e-25 0 -7.5848e-12 0 1.23027e-27
1083 8 0.001 0.0125 0 -0.0270973 2.7719e-25 0 -8.96308e-12 0 1.75626e-27
1084 8 0.001 0.0125 0 -0.0264597 2.7719e-25 0 6.58112e-12 0 9.01268e-28
1085 8 0.001 0.0125 0 -0.0258221 2.7719e-25 0 -7.5848e-12 0 1.23027e-27
1233 9 0.001 0.0175 0 -0.0270973 -2.7719e-25 0 -8.96308e-12 0 1.75626e-27
1234 9 0.001 0.0175 0 -0.0264597 -2.7719e-25 0 6.58112e-12 0 9.01268e-28
1235 9 0.001 0.0175 0 -0.0258221 -2.7719e-25 0 -7.5848e-12 0 1.23027e-27
1383 10 0.001 0.0225 0 -0.0270973 -2.7719e-25 0 -8.96308e-12 0 1.75626e-27
1384 10 0.001 0.0225 0 -0.0264597 -2.7719e-25 0 6.58112e-12 0 9.01268e-28
1385 10 0.001 0.0225 0 -0.0258221 -2.7719e-25 0 -7.5848e-12 0 1.23027e-27
36 1 0.001 -0.0225 0 -0.0251846 2.7719e-25 0 5.18117e-12 0 8.45076e-28
37 1 0.001 -0.0225 0 -0.024547 2.7719e-25 0 8.15371e-13 0 1.21079e-28
186 2 0.001 -0.0175 0 -0.0251846 2.7719e-25 0 5.18117e-12 0 8.45076e-28
187 2 0.001 -0.0175 0 -0.024547 2.7719e-25 0 8.15371e-13 0 1.21079e-28
336 3 0.001 -0.0125 0 -0.0251846 -2.7719e-25 0 5.18117e-12 0 8.45076e-28
337 3 0.001 -0.0125 0 -0.024547 -2.7719e-25 0 8.15371e-13 0 1.21079e-28
486 4 0.001 -0.00750003 0 -0.0251846 -2.7719e-25 0 5.18117e-12 0 8.45076e-28
487 4 0.001 -0.00750003 0 -0.024547 -2.7719e-25 0 8.15371e-13 0 1.21079e-28
636 5 0.001 -0.00250003 0 -0.0251846 -2.7719e-25 0 5.18117e-12 0 8.45076e-28
637 5 0.001 -0.00250003 0 -0.024547 -2.7719e-25 0 8.15371e-13 0 1.21079e-28
786 6 0.001 0.00250003 0 -0.0251846 2.7719e-25 0 5.18117e-12 0 8.45076e-28
787 6 0.001 0.00250003 0 -0.024547 2.7719e-25 0 8.15371e-13 0 1.21079e-28
936 7 0.001 0.00749997 0 -0.0251846 -2.7719e-25 0 5.18117e-12 0 8.45076e-28
937 7 0.001 0.00749997 0 -0.024547 -2.7719e-25 0 8.15371e-13 0 1.21079e-28
1086 8 0.001 0.0125 0 -0.0251846 2.7719e-25 0 5.18117e-12 0 8.45076e-28
1087 8 0.001 0.0125 0 -0.024547 2.7719e-25 0 8.15371e-13 0 1.21079e-28
1236 9 0.001 0.0175 0 -0.0251846 -2.7719e-25 0 5.18117e-12 0 8.45076e-28
1237 9 0.001 0.0175 0 -0.024547 -2.7719e-25 0 8.15371e-13 0 1.21079e-28
1386 10 0.001 0.0225 0 -0.0251846 -2.7719e-25 0 5.18117e-12 0 8.45076e-28
1387 10 0.001 0.0225 0 -0.024547 -2.7719e-25 0 8.15371e-13 0 1.21079e-28
38 1 0.001 -0.0225 0 -0.0239094 2.7719e-25 0 -2.33929e-12 0 1.25296e-28
39 1 0.001 -0.0225 0 -0.0232718 2.7719e-25 0 -1.4627e-12 0 2.38066e-28
188 2 0.001 -0.0175 0 -0.0239094 2.7719e-25 0 -2.33929e-12 0 1.25296e-28
189 2 0.001 -0.0175 0 -0.0232718 2.7719e-25 0 -1.4627e-12 0 2.38066e-28
338 3 0.001 -0.0125 0 -0.0239094 -2.7719e-25 0 -2.33929e-12 0 1.25296e-28
339 3 0.001 -0.0125 0 -0.0232718 -2.7719e-25 0 -1.4627e-12 0 2.38066e-28
488 4 0.001 -0.00750003 0 -0.0239094 -2.7719e-25 0 -2.33929e-12 0 1.25296e-28
489 4 0.001 -0.00750003 0 -0.0232718 -2.7719e-25 0 -1.4627e-12 0 2.38066e-28
638 5 0.001 -0.00250003 0 -0.0239094 -2.7719e-25 0 -2.33929e-12 0 1.25296e-28
639 5 0.001 -0.00250003 0 -0.0232718 -2.7719e-25 0 -1.4627e-12 0 2.38066e-28
788 6 0.001 0.00250003 0 -0.0239094 2.7719e-25 0 -2.33929e-12 0 1.25296e-28
789 6 0.001 0.00250003 0 -0.0232718 2.7719e-25 0 -1.4627e-12 0 2.38066e-28
938 7 0.001 0.00749997 0 -0.0239094 -2.7719e-25 0 -2.33929e-12 0 1.25296e-28
939 7 0.001 0.00749997 0 -0.0232718 -2.7719e-25 0 -1.4627e-12 0 2.38066e-28
1088 8 0.001 0.0125 0 -0.0239094 2.7719e-25 0 -2.33929e-12 0 1.25296e-28
1089 8 0.001 0.0125 0 -0.0232718 2.7719e-25 0 -1.4627e-12 0 2.38066e-28
1238 9 0.001 0.0175 0 -0.0239094 -2.7719e-25 0 -2.33929e-12 0 1.25296e-28
1239 9 0.001 0.0175 0 -0.0232718 -2.7719e-25 0 -1.4627e-12 0 2.38066e-28
1388 10 0.001 0.0225 0 -0.0239094 -2.7719e-25 0 -2.33929e-12 0 1.25296e-28
1389 10 0.001 0.0225 0 -0.0232718 -2.7719e-25 0 -1.4627e-12 0 2.38066e-28
40 1 0.001 -0.0225 0 -0.0226342 2.7719e-25 0 6.66524e-12 0 1.01795e-27
41 1 0.001 -0.0225 0 -0.0219966 2.7719e-25 0 -4.68032e-12 0 8.0929e-28
42 1 0.001 -0.0225 0 -0.0213591 2.7719e-25 0 1.97484e-14 0 5.75809e-30
190 2 0.001 -0.0175 0 -0.0226342 2.7719e-25 0 6.66524e-12 0 1.01795e-27
191 2 0.001 -0.0175 0 -0.0219966 2.7719e-25 0 -4.68032e-12 0 8.0929e-28
192 2 0.001 -0.0175 0 -0.0213591 2.7719e-25 0 1.97484e-14 0 5.75809e-30
340 3 0.001 -0.0125 0 -0.0226342 -2.7719e-25 0 6.66524e-12 0 1.01795e-27
341 3 0.001 -0.0125 0 -0.0219966 -2.7719e-25 0 -4.68032e-12 0 8.0929e-28
342 3 0.001 -0.0125 0 -0.0213591 -2.7719e-25 0 1.97484e-14 0 5.75809e-30
490 4 0.001 -0.00750003 0 -0.0226342 -2.7719e-25 0 6.66524e-12 0 1.01795e-27
491 4 0.001 -0.00750003 0 -0.0219966 -2.7719e-25 0 -4.68032e-12 0 8.0929e-28