ITEM: TIMESTEP
9600000
ITEM: NUMBER OF ATOMS
1500
ITEM: BOX BOUNDS ff ff ff
-2.5000000000000001e-02 2.5000000000000001e-02
-5.0000000000000001e-03 5.0000000000000001e-03
-5.0000000000000003e-02 5.0000000000000003e-02
ITEM: ATOMS id type radius x y z fx fy fz c_bendingE c_stretchingE
1 1 0.001 -0.0224999 0 -0.0475 2.7719e-25 0 6.66807e-13 0 1.84504e-29
151 2 0.001 -0.0174999 0 -0.0475 2.7719e-25 0 6.66807e-13 0 1.84504e-29
301 3 0.001 -0.0125001 0 -0.0475 -2.7719e-25 0 6.66807e-13 0 1.84504e-29
451 4 0.001 -0.0075001 0 -0.0475 -2.7719e-25 0 6.66807e-13 0 1.84504e-29
601 5 0.001 -0.0025001 0 -0.0475 -2.7719e-25 0 6.66807e-13 0 1.84504e-29
751 6 0.001 0.0025001 0 -0.0475 2.7719e-25 0 6.66807e-13 0 1.84504e-29
901 7 0.001 0.0074999 0 -0.0475 -2.7719e-25 0 6.66807e-13 0 1.84504e-29
1051 8 0.001 0.0125001 0 -0.0475 2.7719e-25 0 6.66807e-13 0 1.84504e-29
1201 9 0.001 0.0174999 0 -0.0475 -2.7719e-25 0 6.66807e-13 0 1.84504e-29
1351 10 0.001 0.0224999 0 -0.0475 -2.7719e-25 0 6.66807e-13 0 1.84504e-29
2 1 0.001 -0.0224999 0 -0.0468624 2.7719e-25 0 -7.5149e-13 0 1.87541e-29
3 1 0.001 -0.0224999 0 -0.0462248 2.7719e-25 0 2.96534e-12 0 3.44989e-28
4 1 0.001 -0.0224999 0 -0.0455872 2.7719e-25 0 1.46335e-12 0 1.1281e-27
152 2 0.001 -0.0174999 0 -0.0468624 2.7719e-25 0 -7.5149e-13 0 1.87541e-29
153 2 0.001 -0.0174999 0 -0.0462248 2.7719e-25 0 2.96534e-12 0 3.44989e-28
154 2 0.001 -0.0174999 0 -0.0455872 2.7719e-25 0 1.46335e-12 0 1.1281e-27
302 3 0.001 -0.0125001 0 -0.0468624 -2.7719e-25 0 -7.5149e-13 0 1.87541e-29
303 3 0.001 -0.0125001 0 -0.0462248 -2.7719e-25 0 2.96534e-12 0 3.44989e-28
304 3 0.001 -0.0125001 0 -0.0455872 -2.7719e-25 0 1.46335e-12 0 1.1281e-27
452 4 0.001 -0.0075001 0 -0.0468624 -2.7719e-25 0 -7.5149e-13 0 1.87541e-29
453 4 0.001 -0.0075001 0 -0.0462248 -2.7719e-25 0 2.96534e-12 0 3.44989e-28
454 4 0.001 -0.0075001 0 -0.0455872 -2.7719e-25 0 1.46335e-12 0 1.1281e-27
602 5 0.001 -0.0025001 0 -0.0468624 -2.7719e-25 0 -7.5149e-13 0 1.87541e-29
603 5 0.001 -0.0025001 0 -0.0462248 -2.7719e-25 0 2.96534e-12 0 3.44989e-28
604 5 0.001 -0.0025001 0 -0.0455872 -2.7719e-25 0 1.46335e-12 0 1.1281e-27
752 6 0.001 0.0025001 0 -0.0468624 2.7719e-25 0 -7.5149e-13 0 1.87541e-29
753 6 0.001 0.0025001 0 -0.0462248 2.7719e-25 0 2.96534e-12 0 3.44989e-28
754 6 0.001 0.0025001 0 -0.0455872 2.7719e-25 0 1.46335e-12 0 1.1281e-27
902 7 0.001 0.0074999 0 -0.0468624 -2.7719e-25 0 -7.5149e-13 0 1.87541e-29
903 7 0.001 0.0074999 0 -0.0462248 -2.7719e-25 0 2.96534e-12 0 3.44989e-28
904 7 0.001 0.0074999 0 -0.0455872 -2.7719e-25 0 1.46335e-12 0 1.1281e-27
1052 8 0.001 0.0125001 0 -0.0468624 2.7719e-25 0 -7.5149e-13 0 1.87541e-29
1053 8 0.001 0.0125001 0 -0.0462248 2.7719e-25 0 2.96534e-12 0 3.44989e-28
1054 8 0.001 0.0125001 0 -0.0455872 2.7719e-25 0 1.46335e-12 0 1.1281e-27
1202 9 0.001 0.0174999 0 -0.0468624 -2.7719e-25 0 -7.5149e-13 0 1.87541e-29
1203 9 0.001 0.0174999 0 -0.0462248 -2.7719e-25 0 2.96534e-12 0 3.44989e-28
1204 9 0.001 0.0174999 0 -0.0455872 -2.7719e-25 0 1.46335e-12 0 1.1281e-27
1352 10 0.001 0.0224999 0 -0.0468624 -2.7719e-25 0 -7.5149e-13 0 1.87541e-29
1353 10 0.001 0.0224999 0 -0.0462248 -2.7719e-25 0 2.96534e-12 0 3.44989e-28
1354 10 0.001 0.0224999 0 -0.0455872 -2.7719e-25 0 1.46335e-12 0 1.1281e-27
5 1 0.001 -0.0224999 0 -0.0449497 2.7719e-25 0 -5.18187e-12 0 8.12545e-28
6 1 0.001 -0.0224999 0 -0.0443121 2.7719e-25 0 2.92618e-13 0 4.14749e-29
155 2 0.001 -0.0174999 0 -0.0449497 2.7719e-25 0 -5.18187e-12 0 8.12545e-28
156 2 0.001 -0.0174999 0 -0.0443121 2.7719e-25 0 2.92618e-13 0 4.14749e-29
305 3 0.001 -0.0125001 0 -0.0449497 -2.7719e-25 0 -5.18187e-12 0 8.12545e-28
306 3 0.001 -0.0125001 0 -0.0443121 -2.7719e-25 0 2.92618e-13 0 4.14749e-29
455 4 0.001 -0.0075001 0 -0.0449497 -2.7719e-25 0 -5.18187e-12 0 8.12545e-28
456 4 0.001 -0.0075001 0 -0.0443121 -2.7719e-25 0 2.92618e-13 0 4.14749e-29
605 5 0.001 -0.0025001 0 -0.0449497 -2.7719e-25 0 -5.18187e-12 0 8.12545e-28
606 5 0.001 -0.0025001 0 -0.0443121 -2.7719e-25 0 2.92618e-13 0 4.14749e-29
755 6 0.001 0.0025001 0 -0.0449497 2.7719e-25 0 -5.18187e-12 0 8.12545e-28
756 6 0.001 0.0025001 0 -0.0443121 2.7719e-25 0 2.92618e-13 0 4.14749e-29
905 7 0.001 0.0074999 0 -0.0449497 -2.7719e-25 0 -5.18187e-12 0 8.12545e-28
906 7 0.001 0.0074999 0 -0.0443121 -2.7719e-25 0 2.92618e-13 0 4.14749e-29
1055 8 0.001 0.0125001 0 -0.0449497 2.7719e-25 0 -5.18187e-12 0 8.12545e-28
1056 8 0.001 0.0125001 0 -0.0443121 2.7719e-25 0 2.92618e-13 0 4.14749e-29
1205 9 0.001 0.0174999 0 -0.0449497 -2.7719e-25 0 -5.18187e-12 0 8.12545e-28
1206 9 0.001 0.0174999 0 -0.0443121 -2.7719e-25 0 2.92618e-13 0 4.14749e-29
1355 10 0.001 0.0224999 0 -0.0449497 -2.7719e-25 0 -5.18187e-12 0 8.12545e-28
1356 10 0.001 0.0224999 0 -0.0443121 -2.7719e-25 0 2.92618e-13 0 4.14749e-29
7 1 0.001 -0.0224999 0 -0.0436745 2.7719e-25 0 5.85892e-13 0 1.24062e-29
8 1 0.001 -0.0224999 0 -0.0430369 2.7719e-25 0 -4.01223e-12 0 6.54989e-28
157 2 0.001 -0.0174999 0 -0.0436745 2.7719e-25 0 5.85892e-13 0 1.24062e-29
158 2 0.001 -0.0174999 0 -0.0430369 2.7719e-25 0 -4.01223e-12 0 6.54989e-28
307 3 0.001 -0.0125001 0 -0.0436745 -2.7719e-25 0 5.85892e-13 0 1.24062e-29
308 3 0.001 -0.0125001 0 -0.0430369 -2.7719e-25 0 -4.01223e-12 0 6.54989e-28
457 4 0.001 -0.0075001 0 -0.0436745 -2.7719e-25 0 5.85892e-13 0 1.24062e-29
458 4 0.001 -0.0075001 0 -0.0430369 -2.7719e-25 0 -4.01223e-12 0 6.54989e-28
607 5 0.001 -0.0025001 0 -0.0436745 -2.7719e-25 0 5.85892e-13 0 1.24062e-29
608 5 0.001 -0.0025001 0 -0.0430369 -2.7719e-25 0 -4.01223e-12 0 6.54989e-28
757 6 0.001 0.0025001 0 -0.0436745 2.7719e-25 0 5.85892e-13 0 1.24062e-29
758 6 0.001 0.0025001 0 -0.0430369 2.7719e-25 0 -4.01223e-12 0 6.54989e-28
907 7 0.001 0.0074999 0 -0.0436745 -2.7719e-25 0 5.85892e-13 0 1.24062e-29
908 7 0.001 0.0074999 0 -0.0430369 -2.7719e-25 0 -4.01223e-12 0 6.54989e-28
1057 8 0.001 0.0125001 0 -0.0436745 2.7719e-25 0 5.85892e-13 0 1.24062e-29
1058 8 0.001 0.0125001 0 -0.0430369 2.7719e-25 0 -4.01223e-12 0 6.54989e-28
1207 9 0.001 0.0174999 0 -0.0436745 -2.7719e-25 0 5.85892e-13 0 1.24062e-29
1208 9 0.001 0.0174999 0 -0.0430369 -2.7719e-25 0 -4.01223e-12 0 6.54989e-28
1357 10 0.001 0.0224999 0 -0.0436745 -2.7719e-25 0 5.85892e-13 0 1.24062e-29
1358 10 0.001 0.0224999 0 -0.0430369 -2.7719e-25 0 -4.01223e-12 0 6.54989e-28
9 1 0.001 -0.0224999 0 -0.0423993 2.7719e-25 0 5.05508e-12 0 7.03754e-28
10 1 0.001 -0.0224999 0 -0.0417617 2.7719e-25 0 -1.46187e-12 0 5.47643e-29
11 1 0.001 -0.0224999 0 -0.0411242 2.7719e-25 0 2.38318e-12 0 1.72638e-28
159 2 0.001 -0.0174999 0 -0.0423993 2.7719e-25 0 5.05508e-12 0 7.03754e-28
160 2 0.001 -0.0174999 0 -0.0417617 2.7719e-25 0 -1.46187e-12 0 5.47643e-29
161 2 0.001 -0.0174999 0 -0.0411242 2.7719e-25 0 2.38318e-12 0 1.72638e-28
309 3 0.001 -0.0125001 0 -0.0423993 -2.7719e-25 0 5.05508e-12 0 7.03754e-28
310 3 0.001 -0.0125001 0 -0.0417617 -2.7719e-25 0 -1.46187e-12 0 5.47643e-29
311 3 0.001 -0.0125001 0 -0.0411242 -2.7719e-25 0 2.38318e-12 0 1.72638e-28
459 4 0.001 -0.0075001 0 -0.0423993 -2.7719e-25 0 5.05508e-12 0 7.03754e-28
460 4 0.001 -0.0075001 0 -0.0417617 -2.7719e-25 0 -1.46187e-12 0 5.47643e-29
461 4 0.001 -0.0075001 0 -0.0411242 -2.7719e-25 0 2.38318e-12 0 1.72638e-28
609 5 0.001 -0.0025001 0 -0.0423993 -2.7719e-25 0 5.05508e-12 0 7.03754e-28
610 5 0.001 -0.0025001 0 -0.0417617 -2.7719e-25 0 -1.46187e-12 0 5.47643e-29
611 5 0.001 -0.0025001 0 -0.0411242 -2.7719e-25 0 2.38318e-12 0 1.72638e-28
759 6 0.001 0.0025001 0 -0.0423993 2.7719e-25 0 5.05508e-12 0 7.03754e-28
760 6 0.001 0.0025001 0 -0.0417617 2.7719e-25 0 -1.46187e-12 0 5.47643e-29
761 6 0.001 0.0025001 0 -0.0411242 2.7719e-25 0 2.38318e-12 0 1.72638e-28
909 7 0.001 0.0074999 0 -0.0423993 -2.7719e-25 0 5.05508e-12 0 7.03754e-28
910 7 0.001 0.0074999 0 -0.0417617 -2.7719e-25 0 -1.46187e-12 0 5.47643e-29
911 7 0.001 0.0074999 0 -0.0411242 -2.7719e-25 0 2.38318e-12 0 1.72638e-28
1059 8 0.001 0.0125001 0 -0.0423993 2.7719e-25 0 5.05508e-12 0 7.03754e-28
1060 8 0.001 0.0125001 0 -0.0417617 2.7719e-25 0 -1.46187e-12 0 5.47643e-29
1061 8 0.001 0.0125001 0 -0.0411242 2.7719e-25 0 2.38318e-12 0 1.72638e-28
1209 9 0.001 0.0174999 0 -0.0423993 -2.7719e-25 0 5.05508e-12 0 7.03754e-28
1210 9 0.001 0.0174999 0 -0.0417617 -2.7719e-25 0 -1.46187e-12 0 5.47643e-29
1211 9 0.001 0.0174999 0 -0.0411242 -2.7719e-25 0 2.38318e-12 0 1.72638e-28
1359 10 0.001 0.0224999 0 -0.0423993 -2.7719e-25 0 5.05508e-12 0 7.03754e-28
1360 10 0.001 0.0224999 0 -0.0417617 -2.7719e-25 0 -1.46187e-12 0 5.47643e-29
1361 10 0.001 0.0224999 0 -0.0411242 -2.7719e-25 0 2.38318e-12 0 1.72638e-28
12 1 0.001 -0.0224999 0 -0.0404866 2.7719e-25 0 -4.47206e-12 0 4.19465e-28
13 1 0.001 -0.0224999 0 -0.039849 2.7719e-25 0 3.76035e-12 0 3.22218e-28
162 2 0.001 -0.0174999 0 -0.0404866 2.7719e-25 0 -4.47206e-12 0 4.19465e-28
163 2 0.001 -0.0174999 0 -0.039849 2.7719e-25 0 3.76035e-12 0 3.22218e-28
312 3 0.001 -0.0125001 0 -0.0404866 -2.7719e-25 0 -4.47206e-12 0 4.19465e-28
313 3 0.001 -0.0125001 0 -0.039849 -2.7719e-25 0 3.76035e-12 0 3.22218e-28
462 4 0.001 -0.0075001 0 -0.0404866 -2.7719e-25 0 -4.47206e-12 0 4.19465e-28
463 4 0.001 -0.0075001 0 -0.039849 -2.7719e-25 0 3.76035e-12 0 3.22218e-28
612 5 0.001 -0.0025001 0 -0.0404866 -2.7719e-25 0 -4.47206e-12 0 4.19465e-28
613 5 0.001 -0.0025001 0 -0.039849 -2.7719e-25 0 3.76035e-12 0 3.22218e-28
762 6 0.001 0.0025001 0 -0.0404866 2.7719e-25 0 -4.47206e-12 0 4.19465e-28
763 6 0.001 0.0025001 0 -0.039849 2.7719e-25 0 3.76035e-12 0 3.22218e-28
912 7 0.001 0.0074999 0 -0.0404866 -2.7719e-25 0 -4.47206e-12 0 4.19465e-28
913 7 0.001 0.0074999 0 -0.039849 -2.7719e-25 0 3.76035e-12 0 3.22218e-28
1062 8 0.001 0.0125001 0 -0.0404866 2.7719e-25 0 -4.47206e-12 0 4.19465e-28
1063 8 0.001 0.0125001 0 -0.039849 2.7719e-25 0 3.76035e-12 0 3.22218e-28
1212 9 0.001 0.0174999 0 -0.0404866 -2.7719e-25 0 -4.47206e-12 0 4.19465e-28
1213 9 0.001 0.0174999 0 -0.039849 -2.7719e-25 0 3.76035e-12 0 3.22218e-28
1362 10 0.001 0.0224999 0 -0.0404866 -2.7719e-25 0 -4.47206e-12 0 4.19465e-28
1363 10 0.001 0.0224999 0 -0.039849 -2.7719e-25 0 3.76035e-12 0 3.22218e-28
14 1 0.001 -0.0224999 0 -0.0392114 2.7719e-25 0 -2.63255e-12 0 1.43912e-28
15 1 0.001 -0.0224999 0 -0.0385738 2.7719e-25 0 2.29862e-12 0 1.12648e-28
16 1 0.001 -0.0224999 0 -0.0379362 2.7719e-25 0 -2.38104e-12 0 1.22231e-28
164 2 0.001 -0.0174999 0 -0.0392114 2.7719e-25 0 -2.63255e-12 0 1.43912e-28
165 2 0.001 -0.0174999 0 -0.0385738 2.7719e-25 0 2.29862e-12 0 1.12648e-28
166 2 0.001 -0.0174999 0 -0.0379362 2.7719e-25 0 -2.38104e-12 0 1.22231e-28
314 3 0.001 -0.0125001 0 -0.0392114 -2.7719e-25 0 -2.63255e-12 0 1.43912e-28
315 3 0.001 -0.0125001 0 -0.0385738 -2.7719e-25 0 2.29862e-12 0 1.12648e-28
316 3 0.001 -0.0125001 0 -0.0379362 -2.7719e-25 0 -2.38104e-12 0 1.22231e-28
464 4 0.001 -0.0075001 0 -0.0392114 -2.7719e-25 0 -2.63255e-12 0 1.43912e-28
465 4 0.001 -0.0075001 0 -0.0385738 -2.7719e-25 0 2.29862e-12 0 1.12648e-28
466 4 0.001 -0.0075001 0 -0.0379362 -2.7719e-25 0 -2.38104e-12 0 1.22231e-28
614 5 0.001 -0.0025001 0 -0.0392114 -2.7719e-25 0 -2.63255e-12 0 1.43912e-28
615 5 0.001 -0.0025001 0 -0.0385738 -2.7719e-25 0 2.29862e-12 0 1.12648e-28
616 5 0.001 -0.0025001 0 -0.0379362 -2.7719e-25 0 -2.38104e-12 0 1.22231e-28
764 6 0.001 0.0025001 0 -0.0392114 2.7719e-25 0 -2.63255e-12 0 1.43912e-28
765 6 0.001 0.0025001 0 -0.0385738 2.7719e-25 0 2.29862e-12 0 1.12648e-28
766 6 0.001 0.0025001 0 -0.0379362 2.7719e-25 0 -2.38104e-12 0 1.22231e-28
914 7 0.001 0.0074999 0 -0.0392114 -2.7719e-25 0 -2.63255e-12 0 1.43912e-28
915 7 0.001 0.0074999 0 -0.0385738 -2.7719e-25 0 2.29862e-12 0 1.12648e-28
916 7 0.001 0.0074999 0 -0.0379362 -2.7719e-25 0 -2.38104e-12 0 1.22231e-28
1064 8 0.001 0.0125001 0 -0.0392114 2.7719e-25 0 -2.63255e-12 0 1.43912e-28
1065 8 0.001 0.0125001 0 -0.0385738 2.7719e-25 0 2.29862e-12 0 1.12648e-28
1066 8 0.001 0.0125001 0 -0.0379362 2.7719e-25 0 -2.38104e-12 0 1.22231e-28
1214 9 0.001 0.0174999 0 -0.0392114 -2.7719e-25 0 -2.63255e-12 0 1.43912e-28
1215 9 0.001 0.0174999 0 -0.0385738 -2.7719e-25 0 2.29862e-12 0 1.12648e-28
1216 9 0.001 0.0174999 0 -0.0379362 -2.7719e-25 0 -2.38104e-12 0 1.22231e-28
1364 10 0.001 0.0224999 0 -0.0392114 -2.7719e-25 0 -2.63255e-12 0 1.43912e-28
1365 10 0.001 0.0224999 0 -0.0385738 -2.7719e-25 0 2.29862e-12 0 1.12648e-28
1366 10 0.001 0.0224999 0 -0.0379362 -2.7719e-25 0 -2.38104e-12 0 1.22231e-28
17 1 0.001 -0.0224999 0 -0.0372987 2.7719e-25 0 1.37902e-12 0 8.41161e-29
18 1 0.001 -0.0224999 0 -0.0366611 2.7719e-25 0 -1.33864e-12 0 7.92521e-29
167 2 0.001 -0.0174999 0 -0.0372987 2.7719e-25 0 1.37902e-12 0 8.41161e-29
168 2 0.001 -0.0174999 0 -0.0366611 2.7719e-25 0 -1.33864e-12 0 7.92521e-29
317 3 0.001 -0.0125001 0 -0.0372987 -2.7719e-25 0 1.37902e-12 0 8.41161e-29
318 3 0.001 -0.0125001 0 -0.0366611 -2.7719e-25 0 -1.33864e-12 0 7.92521e-29
467 4 0.001 -0.0075001 0 -0.0372987 -2.7719e-25 0 1.37902e-12 0 8.41161e-29
468 4 0.001 -0.0075001 0 -0.0366611 -2.7719e-25 0 -1.33864e-12 0 7.92521e-29
617 5 0.001 -0.0025001 0 -0.0372987 -2.7719e-25 0 1.37902e-12 0 8.41161e-29
618 5 0.001 -0.0025001 0 -0.0366611 -2.7719e-25 0 -1.33864e-12 0 7.92521e-29
767 6 0.001 0.0025001 0 -0.0372987 2.7719e-25 0 1.37902e-12 0 8.41161e-29
768 6 0.001 0.0025001 0 -0.0366611 2.7719e-25 0 -1.33864e-12 0 7.92521e-29
917 7 0.001 0.0074999 0 -0.0372987 -2.7719e-25 0 1.37902e-12 0 8.41161e-29
918 7 0.001 0.0074999 0 -0.0366611 -2.7719e-25 0 -1.33864e-12 0 7.92521e-29
1067 8 0.001 0.0125001 0 -0.0372987 2.7719e-25 0 1.37902e-12 0 8.41161e-29
1068 8 0.001 0.0125001 0 -0.0366611 2.7719e-25 0 -1.33864e-12 0 7.92521e-29
1217 9 0.001 0.0174999 0 -0.0372987 -2.7719e-25 0 1.37902e-12 0 8.41161e-29
1218 9 0.001 0.0174999 0 -0.0366611 -2.7719e-25 0 -1.33864e-12 0 7.92521e-29
1367 10 0.001 0.0224999 0 -0.0372987 -2.7719e-25 0 1.37902e-12 0 8.41161e-29
1368 10 0.001 0.0224999 0 -0.0366611 -2.7719e-25 0 -1.33864e-12 0 7.92521e-29
19 1 0.001 -0.0224999 0 -0.0360235 2.7719e-25 0 7.10482e-12 0 1.43892e-27
20 1 0.001 -0.0224999 0 -0.0353859 2.7719e-25 0 -9.06725e-12 0 1.82427e-27
169 2 0.001 -0.0174999 0 -0.0360235 2.7719e-25 0 7.10482e-12 0 1.43892e-27
170 2 0.001 -0.0174999 0 -0.0353859 2.7719e-25 0 -9.06725e-12 0 1.82427e-27
319 3 0.001 -0.0125001 0 -0.0360235 -2.7719e-25 0 7.10482e-12 0 1.43892e-27
320 3 0.001 -0.0125001 0 -0.0353859 -2.7719e-25 0 -9.06725e-12 0 1.82427e-27
469 4 0.001 -0.0075001 0 -0.0360235 -2.7719e-25 0 7.10482e-12 0 1.43892e-27
470 4 0.001 -0.0075001 0 -0.0353859 -2.7719e-25 0 -9.06725e-12 0 1.82427e-27
619 5 0.001 -0.0025001 0 -0.0360235 -2.7719e-25 0 7.10482e-12 0 1.43892e-27
620 5 0.001 -0.0025001 0 -0.0353859 -2.7719e-25 0 -9.06725e-12 0 1.82427e-27
769 6 0.001 0.0025001 0 -0.0360235 2.7719e-25 0 7.10482e-12 0 1.43892e-27
770 6 0.001 0.0025001 0 -0.0353859 2.7719e-25 0 -9.06725e-12 0 1.82427e-27
919 7 0.001 0.0074999 0 -0.0360235 -2.7719e-25 0 7.10482e-12 0 1.43892e-27
920 7 0.001 0.0074999 0 -0.0353859 -2.7719e-25 0 -9.06725e-12 0 1.82427e-27
1069 8 0.001 0.0125001 0 -0.0360235 2.7719e-25 0 7.10482e-12 0 1.43892e-27
1070 8 0.001 0.0125001 0 -0.0353859 2.7719e-25 0 -9.06725e-12 0 1.82427e-27
1219 9 0.001 0.0174999 0 -0.0360235 -2.7719e-25 0 7.10482e-12 0 1.43892e-27
1220 9 0.001 0.0174999 0 -0.0353859 -2.7719e-25 0 -9.06725e-12 0 1.82427e-27
1369 10 0.001 0.0224999 0 -0.0360235 -2.7719e-25 0 7.10482e-12 0 1.43892e-27
1370 10 0.001 0.0224999 0 -0.0353859 -2.7719e-25 0 -9.06725e-12 0 1.82427e-27
21 1 0.001 -0.0224999 0 -0.0347483 2.7719e-25 0 3.96863e-12 0 4.80728e-28
22 1 0.001 -0.0224999 0 -0.0341107 2.7719e-25 0 -7.52526e-13 0 1.68828e-29
23 1 0.001 -0.0224999 0 -0.0334732 2.7719e-25 0 -2.04782e-12 0 1.97056e-28
171 2 0.001 -0.0174999 0 -0.0347483 2.7719e-25 0 3.96863e-12 0 4.80728e-28
172 2 0.001 -0.0174999 0 -0.0341107 2.7719e-25 0 -7.52526e-13 0 1.68828e-29
173 2 0.001 -0.0174999 0 -0.0334732 2.7719e-25 0 -2.04782e-12 0 1.97056e-28
321 3 0.001 -0.0125001 0 -0.0347483 -2.7719e-25 0 3.96863e-12 0 4.80728e-28
322 3 0.001 -0.0125001 0 -0.0341107 -2.7719e-25 0 -7.52526e-13 0 1.68828e-29
323 3 0.001 -0.0125001 0 -0.0334732 -2.7719e-25 0 -2.04782e-12 0 1.97056e-28
471 4 0.001 -0.0075001 0 -0.0347483 -2.7719e-25 0 3.96863e-12 0 4.80728e-28
472 4 0.001 -0.0075001 0 -0.0341107 -2.7719e-25 0 -7.52526e-13 0 1.68828e-29
473 4 0.001 -0.0075001 0 -0.0334732 -2.7719e-25 0 -2.04782e-12 0 1.97056e-28
621 5 0.001 -0.0025001 0 -0.0347483 -2.7719e-25 0 3.96863e-12 0 4.80728e-28
622 5 0.001 -0.0025001 0 -0.0341107 -2.7719e-25 0 -7.52526e-13 0 1.68828e-29
623 5 0.001 -0.0025001 0 -0.0334732 -2.7719e-25 0 -2.04782e-12 0 1.97056e-28
771 6 0.001 0.0025001 0 -0.0347483 2.7719e-25 0 3.96863e-12 0 4.80728e-28
772 6 0.001 0.0025001 0 -0.0341107 2.7719e-25 0 -7.52526e-13 0 1.68828e-29
773 6 0.001 0.0025001 0 -0.0334732 2.7719e-25 0 -2.04782e-12 0 1.97056e-28
921 7 0.001 0.0074999 0 -0.0347483 -2.7719e-25 0 3.96863e-12 0 4.80728e-28
922 7 0.001 0.0074999 0 -0.0341107 -2.7719e-25 0 -7.52526e-13 0 1.68828e-29
923 7 0.001 0.0074999 0 -0.0334732 -2.7719e-25 0 -2.04782e-12 0 1.97056e-28
1071 8 0.001 0.0125001 0 -0.0347483 2.7719e-25 0 3.96863e-12 0 4.80728e-28
1072 8 0.001 0.0125001 0 -0.0341107 2.7719e-25 0 -7.52526e-13 0 1.68828e-29
1073 8 0.001 0.0125001 0 -0.0334732 2.7719e-25 0 -2.04782e-12 0 1.97056e-28
1221 9 0.001 0.0174999 0 -0.0347483 -2.7719e-25 0 3.96863e-12 0 4.80728e-28
1222 9 0.001 0.0174999 0 -0.0341107 -2.7719e-25 0 -7.52526e-13 0 1.68828e-29
1223 9 0.001 0.0174999 0 -0.0334732 -2.7719e-25 0 -2.04782e-12 0 1.97056e-28
1371 10 0.001 0.0224999 0 -0.0347483 -2.7719e-25 0 3.96863e-12 0 4.80728e-28
1372 10 0.001 0.0224999 0 -0.0341107 -2.7719e-25 0 -7.52526e-13 0 1.68828e-29
1373 10 0.001 0.0224999 0 -0.0334732 -2.7719e-25 0 -2.04782e-12 0 1.97056e-28
24 1 0.001 -0.0224999 0 -0.0328356 2.7719e-25 0 7.11835e-13 0 2.85429e-28
25 1 0.001 -0.0224999 0 -0.032198 2.7719e-25 0 6.05864e-12 0 9.65501e-28
174 2 0.001 -0.0174999 0 -0.0328356 2.7719e-25 0 7.11835e-13 0 2.85429e-28
175 2 0.001 -0.0174999 0 -0.032198 2.7719e-25 0 6.05864e-12 0 9.65501e-28
324 3 0.001 -0.0125001 0 -0.0328356 -2.7719e-25 0 7.11835e-13 0 2.85429e-28
325 3 0.001 -0.0125001 0 -0.032198 -2.7719e-25 0 6.05864e-12 0 9.65501e-28
474 4 0.001 -0.0075001 0 -0.0328356 -2.7719e-25 0 7.11835e-13 0 2.85429e-28
475 4 0.001 -0.0075001 0 -0.032198 -2.7719e-25 0 6.05864e-12 0 9.65501e-28
624 5 0.001 -0.0025001 0 -0.0328356 -2.7719e-25 0 7.11835e-13 0 2.85429e-28
625 5 0.001 -0.0025001 0 -0.032198 -2.7719e-25 0 6.05864e-12 0 9.65501e-28
774 6 0.001 0.0025001 0 -0.0328356 2.7719e-25 0 7.11835e-13 0 2.85429e-28
775 6 0.001 0.0025001 0 -0.032198 2.7719e-25 0 6.05864e-12 0 9.65501e-28
924 7 0.001 0.0074999 0 -0.0328356 -2.7719e-25 0 7.11835e-13 0 2.85429e-28
925 7 0.001 0.0074999 0 -0.032198 -2.7719e-25 0 6.05864e-12 0 9.65501e-28
1074 8 0.001 0.0125001 0 -0.0328356 2.7719e-25 0 7.11835e-13 0 2.85429e-28
1075 8 0.001 0.0125001 0 -0.032198 2.7719e-25 0 6.05864e-12 0 9.65501e-28
1224 9 0.001 0.0174999 0 -0.0328356 -2.7719e-25 0 7.11835e-13 0 2.85429e-28
1225 9 0.001 0.0174999 0 -0.032198 -2.7719e-25 0 6.05864e-12 0 9.65501e-28
1374 10 0.001 0.0224999 0 -0.0328356 -2.7719e-25 0 7.11835e-13 0 2.85429e-28
1375 10 0.001 0.0224999 0 -0.032198 -2.7719e-25 0 6.05864e-12 0 9.65501e-28
26 1 0.001 -0.0224999 0 -0.0315604 2.7719e-25 0 -7.31363e-12 0 1.18319e-27
27 1 0.001 -0.0224999 0 -0.0309228 2.7719e-25 0 6.03879e-12 0 7.64391e-28
176 2 0.001 -0.0174999 0 -0.0315604 2.7719e-25 0 -7.31363e-12 0 1.18319e-27
177 2 0.001 -0.0174999 0 -0.0309228 2.7719e-25 0 6.03879e-12 0 7.64391e-28
326 3 0.001 -0.0125001 0 -0.0315604 -2.7719e-25 0 -7.31363e-12 0 1.18319e-27
327 3 0.001 -0.0125001 0 -0.0309228 -2.7719e-25 0 6.03879e-12 0 7.64391e-28
476 4 0.001 -0.0075001 0 -0.0315604 -2.7719e-25 0 -7.31363e-12 0 1.18319e-27
477 4 0.001 -0.0075001 0 -0.0309228 -2.7719e-25 0 6.03879e-12 0 7.64391e-28
626 5 0.001 -0.0025001 0 -0.0315604 -2.7719e-25 0 -7.31363e-12 0 1.18319e-27
627 5 0.001 -0.0025001 0 -0.0309228 -2.7719e-25 0 6.03879e-12 0 7.64391e-28
776 6 0.001 0.0025001 0 -0.0315604 2.7719e-25 0 -7.31363e-12 0 1.18319e-27
777 6 0.001 0.0025001 0 -0.0309228 2.7719e-25 0 6.03879e-12 0 7.64391e-28
926 7 0.001 0.0074999 0 -0.0315604 -2.7719e-25 0 -7.31363e-12 0 1.18319e-27
927 7 0.001 0.0074999 0 -0.0309228 -2.7719e-25 0 6.03879e-12 0 7.64391e-28
1076 8 0.001 0.0125001 0 -0.0315604 2.7719e-25 0 -7.31363e-12 0 1.18319e-27
1077 8 0.001 0.0125001 0 -0.0309228 2.7719e-25 0 6.03879e-12 0 7.64391e-28
1226 9 0.001 0.0174999 0 -0.0315604 -2.7719e-25 0 -7.31363e-12 0 1.18319e-27
1227 9 0.001 0.0174999 0 -0.0309228 -2.7719e-25 0 6.03879e-12 0 7.64391e-28
1376 10 0.001 0.0224999 0 -0.0315604 -2.7719e-25 0 -7.31363e-12 0 1.18319e-27
1377 10 0.001 0.0224999 0 -0.0309228 -2.7719e-25 0 6.03879e-12 0 7.64391e-28
28 1 0.001 -0.0224999 0 -0.0302852 2.7719e-25 0 -5.4321e-12 0 6.42879e-28
29 1 0.001 -0.0224999 0 -0.0296477 2.7719e-25 0 2.5907e-12 0 1.94736e-28
30 1 0.001 -0.0224999 0 -0.0290101 2.7719e-25 0 -2.03735e-14 0 1.8207e-29
178 2 0.001 -0.0174999 0 -0.0302852 2.7719e-25 0 -5.4321e-12 0 6.42879e-28
179 2 0.001 -0.0174999 0 -0.0296477 2.7719e-25 0 2.5907e-12 0 1.94736e-28
180 2 0.001 -0.0174999 0 -0.0290101 2.7719e-25 0 -2.03735e-14 0 1.8207e-29
328 3 0.001 -0.0125001 0 -0.0302852 -2.7719e-25 0 -5.4321e-12 0 6.42879e-28
329 3 0.001 -0.0125001 0 -0.0296477 -2.7719e-25 0 2.5907e-12 0 1.94736e-28
330 3 0.001 -0.0125001 0 -0.0290101 -2.7719e-25 0 -2.03735e-14 0 1.8207e-29
478 4 0.001 -0.0075001 0 -0.0302852 -2.7719e-25 0 -5.4321e-12 0 6.42879e-28
479 4 0.001 -0.0075001 0 -0.0296477 -2.7719e-25 0 2.5907e-12 0 1.94736e-28
480 4 0.001 -0.0075001 0 -0.0290101 -2.7719e-25 0 -2.03735e-14 0 1.8207e-29
628 5 0.001 -0.0025001 0 -0.0302852 -2.7719e-25 0 -5.4321e-12 0 6.42879e-28
629 5 0.001 -0.0025001 0 -0.0296477 -2.7719e-25 0 2.5907e-12 0 1.94736e-28
630 5 0.001 -0.0025001 0 -0.0290101 -2.7719e-25 0 -2.03735e-14 0 1.8207e-29
778 6 0.001 0.0025001 0 -0.0302852 2.7719e-25 0 -5.4321e-12 0 6.42879e-28
779 6 0.001 0.0025001 0 -0.0296477 2.7719e-25 0 2.5907e-12 0 1.94736e-28
780 6 0.001 0.0025001 0 -0.0290101 2.7719e-25 0 -2.03735e-14 0 1.8207e-29
928 7 0.001 0.0074999 0 -0.0302852 -2.7719e-25 0 -5.4321e-12 0 6.42879e-28
929 7 0.001 0.0074999 0 -0.0296477 -2.7719e-25 0 2.5907e-12 0 1.94736e-28
930 7 0.001 0.0074999 0 -0.0290101 -2.7719e-25 0 -2.03735e-14 0 1.8207e-29
1078 8 0.001 0.0125001 0 -0.0302852 2.7719e-25 0 -5.4321e-12 0 6.42879e-28
1079 8 0.001 0.0125001 0 -0.0296477 2.7719e-25 0 2.5907e-12 0 1.94736e-28
1080 8 0.001 0.0125001 0 -0.0290101 2.7719e-25 0 -2.03735e-14 0 1.8207e-29
1228 9 0.001 0.0174999 0 -0.0302852 -2.7719e-25 0 -5.4321e-12 0 6.42879e-28
1229 9 0.001 0.0174999 0 -0.0296477 -2.7719e-25 0 2.5907e-12 0 1.94736e-28
1230 9 0.001 0.0174999 0 -0.0290101 -2.7719e-25 0 -2.03735e-14 0 1.8207e-29
1378 10 0.001 0.0224999 0 -0.0302852 -2.7719e-25 0 -5.4321e-12 0 6.42879e-28
1379 10 0.001 0.0224999 0 -0.0296477 -2.7719e-25 0 2.5907e-12 0 1.94736e-28
1380 10 0.001 0.0224999 0 -0.0290101 -2.7719e-25 0 -2.03735e-14 0 1.8207e-29
31 1 0.001 -0.0224999 0 -0.0283725 2.7719e-25 0 -7.30951e-13 0 1.18047e-29
32 1 0.001 -0.0224999 0 -0.0277349 2.7719e-25 0 2.49744e-13 0 3.12898e-30
181 2 0.001 -0.0174999 0 -0.0283725 2.7719e-25 0 -7.30951e-13 0 1.18047e-29
182 2 0.001 -0.0174999 0 -0.0277349 2.7719e-25 0 2.49744e-13 0 3.12898e-30
331 3 0.001 -0.0125001 0 -0.0283725 -2.7719e-25 0 -7.30951e-13 0 1.18047e-29
332 3 0.001 -0.0125001 0 -0.0277349 -2.7719e-25 0 2.49744e-13 0 3.12898e-30
481 4 0.001 -0.0075001 0 -0.0283725 -2.7719e-25 0 -7.30951e-13 0 1.18047e-29
482 4 0.001 -0.0075001 0 -0.0277349 -2.7719e-25 0 2.49744e-13 0 3.12898e-30
631 5 0.001 -0.0025001 0 -0.0283725 -2.7719e-25 0 -7.30951e-13 0 1.18047e-29
632 5 0.001 -0.0025001 0 -0.0277349 -2.7719e-25 0 2.49744e-13 0 3.12898e-30
781 6 0.001 0.0025001 0 -0.0283725 2.7719e-25 0 -7.30951e-13 0 1.18047e-29
782 6 0.001 0.0025001 0 -0.0277349 2.7719e-25 0 2.49744e-13 0 3.12898e-30
931 7 0.001 0.0074999 0 -0.0283725 -2.7719e-25 0 -7.30951e-13 0 1.18047e-29
932 7 0.001 0.0074999 0 -0.0277349 -2.7719e-25 0 2.49744e-13 0 3.12898e-30
1081 8 0.001 0.0125001 0 -0.0283725 2.7719e-25 0 -7.30951e-13 0 1.18047e-29
1082 8 0.001 0.0125001 0 -0.0277349 2.7719e-25 0 2.49744e-13 0 3.12898e-30
1231 9 0.001 0.0174999 0 -0.0283725 -2.7719e-25 0 -7.30951e-13 0 1.18047e-29
1232 9 0.001 0.0174999 0 -0.0277349 -2.7719e-25 0 2.49744e-13 0 3.12898e-30
1381 10 0.001 0.0224999 0 -0.0283725 -2.7719e-25 0 -7.30951e-13 0 1.18047e-29
1382 10 0.001 0.0224999 0 -0.0277349 -2.7719e-25 0 2.49744e-13 0 3.12898e-30
33 1 0.001 -0.0224999 0 -0.0270973 2.7719e-25 0 -1.94327e-12 0 1.60485e-28
34 1 0.001 -0.0224999 0 -0.0264597 2.7719e-25 0 3.42841e-12 0 2.49033e-28
35 1 0.001 -0.0224999 0 -0.0258221 2.7719e-25 0 4.1705e-13 0 2.35069e-28
183 2 0.001 -0.0174999 0 -0.0270973 2.7719e-25 0 -1.94327e-12 0 1.60485e-28
184 2 0.001 -0.0174999 0 -0.0264597 2.7719e-25 0 3.42841e-12 0 2.49033e-28
185 2 0.001 -0.0174999 0 -0.0258221 2.7719e-25 0 4.1705e-13 0 2.35069e-28
333 3 0.001 -0.0125001 0 -0.0270973 -2.7719e-25 0 -1.94327e-12 0 1.60485e-28
334 3 0.001 -0.0125001 0 -0.0264597 -2.7719e-25 0 3.42841e-12 0 2.49033e-28
335 3 0.001 -0.0125001 0 -0.0258221 -2.7719e-25 0 4.1705e-13 0 2.35069e-28
483 4 0.001 -0.0075001 0 -0.0270973 -2.7719e-25 0 -1.94327e-12 0 1.60485e-28
484 4 0.001 -0.0075001 0 -0.0264597 -2.7719e-25 0 3.42841e-12 0 2.49033e-28
485 4 0.001 -0.0075001 0 -0.0258221 -2.7719e-25 0 4.1705e-13 0 2.35069e-28
633 5 0.001 -0.0025001 0 -0.0270973 -2.7719e-25 0 -1.94327e-12 0 1.60485e-28
634 5 0.001 -0.0025001 0 -0.0264597 -2.7719e-25 0 3.42841e-12 0 2.49033e-28
635 5 0.001 -0.0025001 0 -0.0258221 -2.7719e-25 0 4.1705e-13 0 2.35069e-28
783 6 0.001 0.0025001 0 -0.0270973 2.7719e-25 0 -1.94327e-12 0 1.60485e-28
784 6 0.001 0.0025001 0 -0.0264597 2.7719e-25 0 3.42841e-12 0 2.49033e-28
785 6 0.001 0.0025001 0 -0.0258221 2.7719e-25 0 4.1705e-13 0 2.35069e-28
933 7 0.001 0.0074999 0 -0.0270973 -2.7719e-25 0 -1.94327e-12 0 1.60485e-28
934 7 0.001 0.0074999 0 -0.0264597 -2.7719e-25 0 3.42841e-12 0 2.49033e-28
935 7 0.001 0.0074999 0 -0.0258221 -2.7719e-25 0 4.1705e-13 0 2.35069e-28
1083 8 0.001 0.0125001 0 -0.0270973 2.7719e-25 0 -1.94327e-12 0 1.60485e-28
1084 8 0.001 0.0125001 0 -0.0264597 2.7719e-25 0 3.42841e-12 0 2.49033e-28
1085 8 0.001 0.0125001 0 -0.0258221 2.7719e-25 0 4.1705e-13 0 2.35069e-28
1233 9 0.001 0.0174999 0 -0.0270973 -2.7719e-25 0 -1.94327e-12 0 1.60485e-28
1234 9 0.001 0.0174999 0 -0.0264597 -2.7719e-25 0 3.42841e-12 0 2.49033e-28
1235 9 0.001 0.0174999 0 -0.0258221 -2.7719e-25 0 4.1705e-13 0 2.35069e-28
1383 10 0.001 0.0224999 0 -0.0270973 -2.7719e-25 0 -1.94327e-12 0 1.60485e-28
1384 10 0.001 0.0224999 0 -0.0264597 -2.7719e-25 0 3.42841e-12 0 2.49033e-28
1385 10 0.001 0.0224999 0 -0.0258221 -2.7719e-25 0 4.1705e-13 0 2.35069e-28
36 1 0.001 -0.0224999 0 -0.0251846 2.7719e-25 0 -2.04838e-12 0 1.47686e-28
37 1 0.001 -0.0224999 0 -0.024547 2.7719e-25 0 -1.23205e-12 0 8.27738e-29
186 2 0.001 -0.0174999 0 -0.0251846 2.7719e-25 0 -2.04838e-12 0 1.47686e-28
187 2 0.001 -0.0174999 0 -0.024547 2.7719e-25 0 -1.23205e-12 0 8.27738e-29
336 3 0.001 -0.0125001 0 -0.0251846 -2.7719e-25 0 -2.04838e-12 0 1.47686e-28
337 3 0.001 -0.0125001 0 -0.024547 -2.7719e-25 0 -1.23205e-12 0 8.27738e-29
486 4 0.001 -0.0075001 0 -0.0251846 -2.7719e-25 0 -2.04838e-12 0 1.47686e-28
487 4 0.001 -0.0075001 0 -0.024547 -2.7719e-25 0 -1.23205e-12 0 8.27738e-29
636 5 0.001 -0.0025001 0 -0.0251846 -2.7719e-25 0 -2.04838e-12 0 1.47686e-28
637 5 0.001 -0.0025001 0 -0.024547 -2.7719e-25 0 -1.23205e-12 0 8.27738e-29
786 6 0.001 0.0025001 0 -0.0251846 2.7719e-25 0 -2.04838e-12 0 1.47686e-28
787 6 0.001 0.0025001 0 -0.024547 2.7719e-25 0 -1.23205e-12 0 8.27738e-29
936 7 0.001 0.0074999 0 -0.0251846 -2.7719e-25 0 -2.04838e-12 0 1.47686e-28
937 7 0.001 0.0074999 0 -0.024547 -2.7719e-25 0 -1.23205e-12 0 8.27738e-29
1086 8 0.001 0.0125001 0 -0.0251846 2.7719e-25 0 -2.04838e-12 0 1.47686e-28
1087 8 0.001 0.0125001 0 -0.024547 2.7719e-25 0 -1.23205e-12 0 8.27738e-29
1236 9 0.001 0.0174999 0 -0.0251846 -2.7719e-25 0 -2.04838e-12 0 1.47686e-28
1237 9 0.001 0.0174999 0 -0.024547 -2.7719e-25 0 -1.23205e-12 0 8.27738e-29
1386 10 0.001 0.0224999 0 -0.0251846 -2.7719e-25 0 -2.04838e-12 0 1.47686e-28
1387 10 0.001 0.0224999 0 -0.024547 -2.7719e-25 0 -1.23205e-12 0 8.27738e-29
38 1 0.001 -0.0224999 0 -0.0239094 2.7719e-25 0 2.40263e-12 0 1.23181e-28
39 1 0.001 -0.0224999 0 -0.0232718 2.7719e-25 0 -2.80119e-12 0 1.75932e-28
188 2 0.001 -0.0174999 0 -0.0239094 2.7719e-25 0 2.40263e-12 0 1.23181e-28
189 2 0.001 -0.0174999 0 -0.0232718 2.7719e-25 0 -2.80119e-12 0 1.75932e-28
338 3 0.001 -0.0125001 0 -0.0239094 -2.7719e-25 0 2.40263e-12 0 1.23181e-28
339 3 0.001 -0.0125001 0 -0.0232718 -2.7719e-25 0 -2.80119e-12 0 1.75932e-28
488 4 0.001 -0.0075001 0 -0.0239094 -2.7719e-25 0 2.40263e-12 0 1.23181e-28
489 4 0.001 -0.0075001 0 -0.0232718 -2.7719e-25 0 -2.80119e-12 0 1.75932e-28
638 5 0.001 -0.0025001 0 -0.0239094 -2.7719e-25 0 2.40263e-12 0 1.23181e-28
639 5 0.001 -0.0025001 0 -0.0232718 -2.7719e-25 0 -2.80119e-12 0 1.75932e-28
788 6 0.001 0.0025001 0 -0.0239094 2.7719e-25 0 2.40263e-12 0 1.23181e-28
789 6 0.001 0.0025001 0 -0.0232718 2.7719e-25 0 -2.80119e-12 0 1.75932e-28
938 7 0.001 0.0074999 0 -0.0239094 -2.7719e-25 0 2.40263e-12 0 1.23181e-28
939 7 0.001 0.0074999 0 -0.0232718 -2.7719e-25 0 -2.80119e-12 0 1.75932e-28
1088 8 0.001 0.0125001 0 -0.0239094 2.7719e-25 0 2.40263e-12 0 1.23181e-28
1089 8 0.001 0.0125001 0 -0.0232718 2.7719e-25 0 -2.80119e-12 0 1.75932e-28
1238 9 0.001 0.0174999 0 -0.0239094 -2.7719e-25 0 2.40263e-12 0 1.23181e-28
1239 9 0.001 0.0174999 0 -0.0232718 -2.7719e-25 0 -2.80119e-12 0 1.75932e-28
1388 10 0.001 0.0224999 0 -0.0239094 -2.7719e-25 0 2.40263e-12 0 1.23181e-28
1389 10 0.001 0.0224999 0 -0.0232718 -2.7719e-25 0 -2.80119e-12 0 1.75932e-28
40 1 0.001 -0.0224999 0 -0.0226342 2.7719e-25 0 2.73862e-12 0 1.70886e-28
41 1 0.001 -0.0224999 0 -0.0219966 2.7719e-25 0 -2.51411e-13 0 5.61734e-29
42 1 0.001 -0.0224999 0 -0.0213591 2.7719e-25 0 -4.30452e-12 0 5.62647e-28