ITEM: TIMESTEP
2400000
ITEM: NUMBER OF ATOMS
1500
ITEM: BOX BOUNDS ff ff ff
-2.5000000000000001e-02 2.5000000000000001e-02
-5.0000000000000001e-03 5.0000000000000001e-03
-5.0000000000000003e-02 5.0000000000000003e-02
ITEM: ATOMS id type radius x y z fx fy fz c_bendingE c_stretchingE
1 1 0.001 -0.0225 0 -0.0475 2.34056e-24 0 -1.21448e-12 0 6.11664e-29
151 2 0.001 -0.0175 0 -0.0475 2.34056e-24 0 -1.21448e-12 0 6.11664e-29
301 3 0.001 -0.0125 0 -0.0475 -2.34056e-24 0 -1.21448e-12 0 6.11664e-29
451 4 0.001 -0.00750002 0 -0.0475 -2.34056e-24 0 -1.21448e-12 0 6.11664e-29
601 5 0.001 -0.00250002 0 -0.0475 -2.34056e-24 0 -1.21448e-12 0 6.11664e-29
751 6 0.001 0.00250002 0 -0.0475 2.34056e-24 0 -1.21448e-12 0 6.11664e-29
901 7 0.001 0.00749998 0 -0.0475 -2.34056e-24 0 -1.21448e-12 0 6.11664e-29
1051 8 0.001 0.0125 0 -0.0475 2.34056e-24 0 -1.21448e-12 0 6.11664e-29
1201 9 0.001 0.0175 0 -0.0475 -2.34056e-24 0 -1.21448e-12 0 6.11664e-29
1351 10 0.001 0.0225 0 -0.0475 -2.34056e-24 0 -1.21448e-12 0 6.11664e-29
2 1 0.001 -0.0225 0 -0.0468624 2.34056e-24 0 3.51142e-12 0 2.80093e-28
3 1 0.001 -0.0225 0 -0.0462248 2.34056e-24 0 -2.42457e-12 0 2.196e-28
4 1 0.001 -0.0225 0 -0.0455872 2.34056e-24 0 -1.67279e-12 0 1.35011e-28
152 2 0.001 -0.0175 0 -0.0468624 2.34056e-24 0 3.51142e-12 0 2.80093e-28
153 2 0.001 -0.0175 0 -0.0462248 2.34056e-24 0 -2.42457e-12 0 2.196e-28
154 2 0.001 -0.0175 0 -0.0455872 2.34056e-24 0 -1.67279e-12 0 1.35011e-28
302 3 0.001 -0.0125 0 -0.0468624 -2.34056e-24 0 3.51142e-12 0 2.80093e-28
303 3 0.001 -0.0125 0 -0.0462248 -2.34056e-24 0 -2.42457e-12 0 2.196e-28
304 3 0.001 -0.0125 0 -0.0455872 -2.34056e-24 0 -1.67279e-12 0 1.35011e-28
452 4 0.001 -0.00750002 0 -0.0468624 -2.34056e-24 0 3.51142e-12 0 2.80093e-28
453 4 0.001 -0.00750002 0 -0.0462248 -2.34056e-24 0 -2.42457e-12 0 2.196e-28
454 4 0.001 -0.00750002 0 -0.0455872 -2.34056e-24 0 -1.67279e-12 0 1.35011e-28
602 5 0.001 -0.00250002 0 -0.0468624 -2.34056e-24 0 3.51142e-12 0 2.80093e-28
603 5 0.001 -0.00250002 0 -0.0462248 -2.34056e-24 0 -2.42457e-12 0 2.196e-28
604 5 0.001 -0.00250002 0 -0.0455872 -2.34056e-24 0 -1.67279e-12 0 1.35011e-28
752 6 0.001 0.00250002 0 -0.0468624 2.34056e-24 0 3.51142e-12 0 2.80093e-28
753 6 0.001 0.00250002 0 -0.0462248 2.34056e-24 0 -2.42457e-12 0 2.196e-28
754 6 0.001 0.00250002 0 -0.0455872 2.34056e-24 0 -1.67279e-12 0 1.35011e-28
902 7 0.001 0.00749998 0 -0.0468624 -2.34056e-24 0 3.51142e-12 0 2.80093e-28
903 7 0.001 0.00749998 0 -0.0462248 -2.34056e-24 0 -2.42457e-12 0 2.196e-28
904 7 0.001 0.00749998 0 -0.0455872 -2.34056e-24 0 -1.67279e-12 0 1.35011e-28
1052 8 0.001 0.0125 0 -0.0468624 2.34056e-24 0 3.51142e-12 0 2.80093e-28
1053 8 0.001 0.0125 0 -0.0462248 2.34056e-24 0 -2.42457e-12 0 2.196e-28
1054 8 0.001 0.0125 0 -0.0455872 2.34056e-24 0 -1.67279e-12 0 1.35011e-28
1202 9 0.001 0.0175 0 -0.0468624 -2.34056e-24 0 3.51142e-12 0 2.80093e-28
1203 9 0.001 0.0175 0 -0.0462248 -2.34056e-24 0 -2.42457e-12 0 2.196e-28
1204 9 0.001 0.0175 0 -0.0455872 -2.34056e-24 0 -1.67279e-12 0 1.35011e-28
1352 10 0.001 0.0225 0 -0.0468624 -2.34056e-24 0 3.51142e-12 0 2.80093e-28
1353 10 0.001 0.0225 0 -0.0462248 -2.34056e-24 0 -2.42457e-12 0 2.196e-28
1354 10 0.001 0.0225 0 -0.0455872 -2.34056e-24 0 -1.67279e-12 0 1.35011e-28
5 1 0.001 -0.0225 0 -0.0449497 2.34056e-24 0 5.02091e-13 0 2.04217e-28
6 1 0.001 -0.0225 0 -0.0443121 2.34056e-24 0 2.50637e-12 0 1.30652e-28
155 2 0.001 -0.0175 0 -0.0449497 2.34056e-24 0 5.02091e-13 0 2.04217e-28
156 2 0.001 -0.0175 0 -0.0443121 2.34056e-24 0 2.50637e-12 0 1.30652e-28
305 3 0.001 -0.0125 0 -0.0449497 -2.34056e-24 0 5.02091e-13 0 2.04217e-28
306 3 0.001 -0.0125 0 -0.0443121 -2.34056e-24 0 2.50637e-12 0 1.30652e-28
455 4 0.001 -0.00750002 0 -0.0449497 -2.34056e-24 0 5.02091e-13 0 2.04217e-28
456 4 0.001 -0.00750002 0 -0.0443121 -2.34056e-24 0 2.50637e-12 0 1.30652e-28
605 5 0.001 -0.00250002 0 -0.0449497 -2.34056e-24 0 5.02091e-13 0 2.04217e-28
606 5 0.001 -0.00250002 0 -0.0443121 -2.34056e-24 0 2.50637e-12 0 1.30652e-28
755 6 0.001 0.00250002 0 -0.0449497 2.34056e-24 0 5.02091e-13 0 2.04217e-28
756 6 0.001 0.00250002 0 -0.0443121 2.34056e-24 0 2.50637e-12 0 1.30652e-28
905 7 0.001 0.00749998 0 -0.0449497 -2.34056e-24 0 5.02091e-13 0 2.04217e-28
906 7 0.001 0.00749998 0 -0.0443121 -2.34056e-24 0 2.50637e-12 0 1.30652e-28
1055 8 0.001 0.0125 0 -0.0449497 2.34056e-24 0 5.02091e-13 0 2.04217e-28
1056 8 0.001 0.0125 0 -0.0443121 2.34056e-24 0 2.50637e-12 0 1.30652e-28
1205 9 0.001 0.0175 0 -0.0449497 -2.34056e-24 0 5.02091e-13 0 2.04217e-28
1206 9 0.001 0.0175 0 -0.0443121 -2.34056e-24 0 2.50637e-12 0 1.30652e-28
1355 10 0.001 0.0225 0 -0.0449497 -2.34056e-24 0 5.02091e-13 0 2.04217e-28
1356 10 0.001 0.0225 0 -0.0443121 -2.34056e-24 0 2.50637e-12 0 1.30652e-28
7 1 0.001 -0.0225 0 -0.0436745 2.34056e-24 0 5.03797e-13 0 1.8236e-28
8 1 0.001 -0.0225 0 -0.0430369 2.34056e-24 0 -3.42725e-12 0 2.43732e-28
157 2 0.001 -0.0175 0 -0.0436745 2.34056e-24 0 5.03797e-13 0 1.8236e-28
158 2 0.001 -0.0175 0 -0.0430369 2.34056e-24 0 -3.42725e-12 0 2.43732e-28
307 3 0.001 -0.0125 0 -0.0436745 -2.34056e-24 0 5.03797e-13 0 1.8236e-28
308 3 0.001 -0.0125 0 -0.0430369 -2.34056e-24 0 -3.42725e-12 0 2.43732e-28
457 4 0.001 -0.00750002 0 -0.0436745 -2.34056e-24 0 5.03797e-13 0 1.8236e-28
458 4 0.001 -0.00750002 0 -0.0430369 -2.34056e-24 0 -3.42725e-12 0 2.43732e-28
607 5 0.001 -0.00250002 0 -0.0436745 -2.34056e-24 0 5.03797e-13 0 1.8236e-28
608 5 0.001 -0.00250002 0 -0.0430369 -2.34056e-24 0 -3.42725e-12 0 2.43732e-28
757 6 0.001 0.00250002 0 -0.0436745 2.34056e-24 0 5.03797e-13 0 1.8236e-28
758 6 0.001 0.00250002 0 -0.0430369 2.34056e-24 0 -3.42725e-12 0 2.43732e-28
907 7 0.001 0.00749998 0 -0.0436745 -2.34056e-24 0 5.03797e-13 0 1.8236e-28
908 7 0.001 0.00749998 0 -0.0430369 -2.34056e-24 0 -3.42725e-12 0 2.43732e-28
1057 8 0.001 0.0125 0 -0.0436745 2.34056e-24 0 5.03797e-13 0 1.8236e-28
1058 8 0.001 0.0125 0 -0.0430369 2.34056e-24 0 -3.42725e-12 0 2.43732e-28
1207 9 0.001 0.0175 0 -0.0436745 -2.34056e-24 0 5.03797e-13 0 1.8236e-28
1208 9 0.001 0.0175 0 -0.0430369 -2.34056e-24 0 -3.42725e-12 0 2.43732e-28
1357 10 0.001 0.0225 0 -0.0436745 -2.34056e-24 0 5.03797e-13 0 1.8236e-28
1358 10 0.001 0.0225 0 -0.0430369 -2.34056e-24 0 -3.42725e-12 0 2.43732e-28
9 1 0.001 -0.0225 0 -0.0423993 2.34056e-24 0 -1.67515e-13 0 2.69255e-28
10 1 0.001 -0.0225 0 -0.0417617 2.34056e-24 0 9.82058e-12 0 2.76293e-27
11 1 0.001 -0.0225 0 -0.0411242 2.34056e-24 0 -1.61715e-11 0 5.43066e-27
159 2 0.001 -0.0175 0 -0.0423993 2.34056e-24 0 -1.67515e-13 0 2.69255e-28
160 2 0.001 -0.0175 0 -0.0417617 2.34056e-24 0 9.82058e-12 0 2.76293e-27
161 2 0.001 -0.0175 0 -0.0411242 2.34056e-24 0 -1.61715e-11 0 5.43066e-27
309 3 0.001 -0.0125 0 -0.0423993 -2.34056e-24 0 -1.67515e-13 0 2.69255e-28
310 3 0.001 -0.0125 0 -0.0417617 -2.34056e-24 0 9.82058e-12 0 2.76293e-27
311 3 0.001 -0.0125 0 -0.0411242 -2.34056e-24 0 -1.61715e-11 0 5.43066e-27
459 4 0.001 -0.00750002 0 -0.0423993 -2.34056e-24 0 -1.67515e-13 0 2.69255e-28
460 4 0.001 -0.00750002 0 -0.0417617 -2.34056e-24 0 9.82058e-12 0 2.76293e-27
461 4 0.001 -0.00750002 0 -0.0411242 -2.34056e-24 0 -1.61715e-11 0 5.43066e-27
609 5 0.001 -0.00250002 0 -0.0423993 -2.34056e-24 0 -1.67515e-13 0 2.69255e-28
610 5 0.001 -0.00250002 0 -0.0417617 -2.34056e-24 0 9.82058e-12 0 2.76293e-27
611 5 0.001 -0.00250002 0 -0.0411242 -2.34056e-24 0 -1.61715e-11 0 5.43066e-27
759 6 0.001 0.00250002 0 -0.0423993 2.34056e-24 0 -1.67515e-13 0 2.69255e-28
760 6 0.001 0.00250002 0 -0.0417617 2.34056e-24 0 9.82058e-12 0 2.76293e-27
761 6 0.001 0.00250002 0 -0.0411242 2.34056e-24 0 -1.61715e-11 0 5.43066e-27
909 7 0.001 0.00749998 0 -0.0423993 -2.34056e-24 0 -1.67515e-13 0 2.69255e-28
910 7 0.001 0.00749998 0 -0.0417617 -2.34056e-24 0 9.82058e-12 0 2.76293e-27
911 7 0.001 0.00749998 0 -0.0411242 -2.34056e-24 0 -1.61715e-11 0 5.43066e-27
1059 8 0.001 0.0125 0 -0.0423993 2.34056e-24 0 -1.67515e-13 0 2.69255e-28
1060 8 0.001 0.0125 0 -0.0417617 2.34056e-24 0 9.82058e-12 0 2.76293e-27
1061 8 0.001 0.0125 0 -0.0411242 2.34056e-24 0 -1.61715e-11 0 5.43066e-27
1209 9 0.001 0.0175 0 -0.0423993 -2.34056e-24 0 -1.67515e-13 0 2.69255e-28
1210 9 0.001 0.0175 0 -0.0417617 -2.34056e-24 0 9.82058e-12 0 2.76293e-27
1211 9 0.001 0.0175 0 -0.0411242 -2.34056e-24 0 -1.61715e-11 0 5.43066e-27
1359 10 0.001 0.0225 0 -0.0423993 -2.34056e-24 0 -1.67515e-13 0 2.69255e-28
1360 10 0.001 0.0225 0 -0.0417617 -2.34056e-24 0 9.82058e-12 0 2.76293e-27
1361 10 0.001 0.0225 0 -0.0411242 -2.34056e-24 0 -1.61715e-11 0 5.43066e-27
12 1 0.001 -0.0225 0 -0.0404866 2.34056e-24 0 1.28707e-11 0 3.70731e-27
13 1 0.001 -0.0225 0 -0.039849 2.34056e-24 0 -7.94078e-12 0 1.34545e-27
162 2 0.001 -0.0175 0 -0.0404866 2.34056e-24 0 1.28707e-11 0 3.70731e-27
163 2 0.001 -0.0175 0 -0.039849 2.34056e-24 0 -7.94078e-12 0 1.34545e-27
312 3 0.001 -0.0125 0 -0.0404866 -2.34056e-24 0 1.28707e-11 0 3.70731e-27
313 3 0.001 -0.0125 0 -0.039849 -2.34056e-24 0 -7.94078e-12 0 1.34545e-27
462 4 0.001 -0.00750002 0 -0.0404866 -2.34056e-24 0 1.28707e-11 0 3.70731e-27
463 4 0.001 -0.00750002 0 -0.039849 -2.34056e-24 0 -7.94078e-12 0 1.34545e-27
612 5 0.001 -0.00250002 0 -0.0404866 -2.34056e-24 0 1.28707e-11 0 3.70731e-27
613 5 0.001 -0.00250002 0 -0.039849 -2.34056e-24 0 -7.94078e-12 0 1.34545e-27
762 6 0.001 0.00250002 0 -0.0404866 2.34056e-24 0 1.28707e-11 0 3.70731e-27
763 6 0.001 0.00250002 0 -0.039849 2.34056e-24 0 -7.94078e-12 0 1.34545e-27
912 7 0.001 0.00749998 0 -0.0404866 -2.34056e-24 0 1.28707e-11 0 3.70731e-27
913 7 0.001 0.00749998 0 -0.039849 -2.34056e-24 0 -7.94078e-12 0 1.34545e-27
1062 8 0.001 0.0125 0 -0.0404866 2.34056e-24 0 1.28707e-11 0 3.70731e-27
1063 8 0.001 0.0125 0 -0.039849 2.34056e-24 0 -7.94078e-12 0 1.34545e-27
1212 9 0.001 0.0175 0 -0.0404866 -2.34056e-24 0 1.28707e-11 0 3.70731e-27
1213 9 0.001 0.0175 0 -0.039849 -2.34056e-24 0 -7.94078e-12 0 1.34545e-27
1362 10 0.001 0.0225 0 -0.0404866 -2.34056e-24 0 1.28707e-11 0 3.70731e-27
1363 10 0.001 0.0225 0 -0.039849 -2.34056e-24 0 -7.94078e-12 0 1.34545e-27
14 1 0.001 -0.0225 0 -0.0392114 2.34056e-24 0 2.67462e-12 0 4.69399e-28
15 1 0.001 -0.0225 0 -0.0385738 2.34056e-24 0 -1.66582e-13 0 4.27141e-29
16 1 0.001 -0.0225 0 -0.0379362 2.34056e-24 0 3.76079e-12 0 3.91271e-28
164 2 0.001 -0.0175 0 -0.0392114 2.34056e-24 0 2.67462e-12 0 4.69399e-28
165 2 0.001 -0.0175 0 -0.0385738 2.34056e-24 0 -1.66582e-13 0 4.27141e-29
166 2 0.001 -0.0175 0 -0.0379362 2.34056e-24 0 3.76079e-12 0 3.91271e-28
314 3 0.001 -0.0125 0 -0.0392114 -2.34056e-24 0 2.67462e-12 0 4.69399e-28
315 3 0.001 -0.0125 0 -0.0385738 -2.34056e-24 0 -1.66582e-13 0 4.27141e-29
316 3 0.001 -0.0125 0 -0.0379362 -2.34056e-24 0 3.76079e-12 0 3.91271e-28
464 4 0.001 -0.00750002 0 -0.0392114 -2.34056e-24 0 2.67462e-12 0 4.69399e-28
465 4 0.001 -0.00750002 0 -0.0385738 -2.34056e-24 0 -1.66582e-13 0 4.27141e-29
466 4 0.001 -0.00750002 0 -0.0379362 -2.34056e-24 0 3.76079e-12 0 3.91271e-28
614 5 0.001 -0.00250002 0 -0.0392114 -2.34056e-24 0 2.67462e-12 0 4.69399e-28
615 5 0.001 -0.00250002 0 -0.0385738 -2.34056e-24 0 -1.66582e-13 0 4.27141e-29
616 5 0.001 -0.00250002 0 -0.0379362 -2.34056e-24 0 3.76079e-12 0 3.91271e-28
764 6 0.001 0.00250002 0 -0.0392114 2.34056e-24 0 2.67462e-12 0 4.69399e-28
765 6 0.001 0.00250002 0 -0.0385738 2.34056e-24 0 -1.66582e-13 0 4.27141e-29
766 6 0.001 0.00250002 0 -0.0379362 2.34056e-24 0 3.76079e-12 0 3.91271e-28
914 7 0.001 0.00749998 0 -0.0392114 -2.34056e-24 0 2.67462e-12 0 4.69399e-28
915 7 0.001 0.00749998 0 -0.0385738 -2.34056e-24 0 -1.66582e-13 0 4.27141e-29
916 7 0.001 0.00749998 0 -0.0379362 -2.34056e-24 0 3.76079e-12 0 3.91271e-28
1064 8 0.001 0.0125 0 -0.0392114 2.34056e-24 0 2.67462e-12 0 4.69399e-28
1065 8 0.001 0.0125 0 -0.0385738 2.34056e-24 0 -1.66582e-13 0 4.27141e-29
1066 8 0.001 0.0125 0 -0.0379362 2.34056e-24 0 3.76079e-12 0 3.91271e-28
1214 9 0.001 0.0175 0 -0.0392114 -2.34056e-24 0 2.67462e-12 0 4.69399e-28
1215 9 0.001 0.0175 0 -0.0385738 -2.34056e-24 0 -1.66582e-13 0 4.27141e-29
1216 9 0.001 0.0175 0 -0.0379362 -2.34056e-24 0 3.76079e-12 0 3.91271e-28
1364 10 0.001 0.0225 0 -0.0392114 -2.34056e-24 0 2.67462e-12 0 4.69399e-28
1365 10 0.001 0.0225 0 -0.0385738 -2.34056e-24 0 -1.66582e-13 0 4.27141e-29
1366 10 0.001 0.0225 0 -0.0379362 -2.34056e-24 0 3.76079e-12 0 3.91271e-28
17 1 0.001 -0.0225 0 -0.0372987 2.34056e-24 0 -4.5958e-12 0 4.75502e-28
18 1 0.001 -0.0225 0 -0.0366611 2.34056e-24 0 2.42387e-12 0 1.36574e-28
167 2 0.001 -0.0175 0 -0.0372987 2.34056e-24 0 -4.5958e-12 0 4.75502e-28
168 2 0.001 -0.0175 0 -0.0366611 2.34056e-24 0 2.42387e-12 0 1.36574e-28
317 3 0.001 -0.0125 0 -0.0372987 -2.34056e-24 0 -4.5958e-12 0 4.75502e-28
318 3 0.001 -0.0125 0 -0.0366611 -2.34056e-24 0 2.42387e-12 0 1.36574e-28
467 4 0.001 -0.00750002 0 -0.0372987 -2.34056e-24 0 -4.5958e-12 0 4.75502e-28
468 4 0.001 -0.00750002 0 -0.0366611 -2.34056e-24 0 2.42387e-12 0 1.36574e-28
617 5 0.001 -0.00250002 0 -0.0372987 -2.34056e-24 0 -4.5958e-12 0 4.75502e-28
618 5 0.001 -0.00250002 0 -0.0366611 -2.34056e-24 0 2.42387e-12 0 1.36574e-28
767 6 0.001 0.00250002 0 -0.0372987 2.34056e-24 0 -4.5958e-12 0 4.75502e-28
768 6 0.001 0.00250002 0 -0.0366611 2.34056e-24 0 2.42387e-12 0 1.36574e-28
917 7 0.001 0.00749998 0 -0.0372987 -2.34056e-24 0 -4.5958e-12 0 4.75502e-28
918 7 0.001 0.00749998 0 -0.0366611 -2.34056e-24 0 2.42387e-12 0 1.36574e-28
1067 8 0.001 0.0125 0 -0.0372987 2.34056e-24 0 -4.5958e-12 0 4.75502e-28
1068 8 0.001 0.0125 0 -0.0366611 2.34056e-24 0 2.42387e-12 0 1.36574e-28
1217 9 0.001 0.0175 0 -0.0372987 -2.34056e-24 0 -4.5958e-12 0 4.75502e-28
1218 9 0.001 0.0175 0 -0.0366611 -2.34056e-24 0 2.42387e-12 0 1.36574e-28
1367 10 0.001 0.0225 0 -0.0372987 -2.34056e-24 0 -4.5958e-12 0 4.75502e-28
1368 10 0.001 0.0225 0 -0.0366611 -2.34056e-24 0 2.42387e-12 0 1.36574e-28
19 1 0.001 -0.0225 0 -0.0360235 2.34056e-24 0 -1.79796e-12 0 6.79631e-29
20 1 0.001 -0.0225 0 -0.0353859 2.34056e-24 0 3.76019e-12 0 3.57265e-28
169 2 0.001 -0.0175 0 -0.0360235 2.34056e-24 0 -1.79796e-12 0 6.79631e-29
170 2 0.001 -0.0175 0 -0.0353859 2.34056e-24 0 3.76019e-12 0 3.57265e-28
319 3 0.001 -0.0125 0 -0.0360235 -2.34056e-24 0 -1.79796e-12 0 6.79631e-29
320 3 0.001 -0.0125 0 -0.0353859 -2.34056e-24 0 3.76019e-12 0 3.57265e-28
469 4 0.001 -0.00750002 0 -0.0360235 -2.34056e-24 0 -1.79796e-12 0 6.79631e-29
470 4 0.001 -0.00750002 0 -0.0353859 -2.34056e-24 0 3.76019e-12 0 3.57265e-28
619 5 0.001 -0.00250002 0 -0.0360235 -2.34056e-24 0 -1.79796e-12 0 6.79631e-29
620 5 0.001 -0.00250002 0 -0.0353859 -2.34056e-24 0 3.76019e-12 0 3.57265e-28
769 6 0.001 0.00250002 0 -0.0360235 2.34056e-24 0 -1.79796e-12 0 6.79631e-29
770 6 0.001 0.00250002 0 -0.0353859 2.34056e-24 0 3.76019e-12 0 3.57265e-28
919 7 0.001 0.00749998 0 -0.0360235 -2.34056e-24 0 -1.79796e-12 0 6.79631e-29
920 7 0.001 0.00749998 0 -0.0353859 -2.34056e-24 0 3.76019e-12 0 3.57265e-28
1069 8 0.001 0.0125 0 -0.0360235 2.34056e-24 0 -1.79796e-12 0 6.79631e-29
1070 8 0.001 0.0125 0 -0.0353859 2.34056e-24 0 3.76019e-12 0 3.57265e-28
1219 9 0.001 0.0175 0 -0.0360235 -2.34056e-24 0 -1.79796e-12 0 6.79631e-29
1220 9 0.001 0.0175 0 -0.0353859 -2.34056e-24 0 3.76019e-12 0 3.57265e-28
1369 10 0.001 0.0225 0 -0.0360235 -2.34056e-24 0 -1.79796e-12 0 6.79631e-29
1370 10 0.001 0.0225 0 -0.0353859 -2.34056e-24 0 3.76019e-12 0 3.57265e-28
21 1 0.001 -0.0225 0 -0.0347483 2.34056e-24 0 -4.2612e-12 0 4.09544e-28
22 1 0.001 -0.0225 0 -0.0341107 2.34056e-24 0 2.67351e-12 0 1.50846e-28
23 1 0.001 -0.0225 0 -0.0334732 2.34056e-24 0 1.25164e-13 0 1.26105e-28
171 2 0.001 -0.0175 0 -0.0347483 2.34056e-24 0 -4.2612e-12 0 4.09544e-28
172 2 0.001 -0.0175 0 -0.0341107 2.34056e-24 0 2.67351e-12 0 1.50846e-28
173 2 0.001 -0.0175 0 -0.0334732 2.34056e-24 0 1.25164e-13 0 1.26105e-28
321 3 0.001 -0.0125 0 -0.0347483 -2.34056e-24 0 -4.2612e-12 0 4.09544e-28
322 3 0.001 -0.0125 0 -0.0341107 -2.34056e-24 0 2.67351e-12 0 1.50846e-28
323 3 0.001 -0.0125 0 -0.0334732 -2.34056e-24 0 1.25164e-13 0 1.26105e-28
471 4 0.001 -0.00750002 0 -0.0347483 -2.34056e-24 0 -4.2612e-12 0 4.09544e-28
472 4 0.001 -0.00750002 0 -0.0341107 -2.34056e-24 0 2.67351e-12 0 1.50846e-28
473 4 0.001 -0.00750002 0 -0.0334732 -2.34056e-24 0 1.25164e-13 0 1.26105e-28
621 5 0.001 -0.00250002 0 -0.0347483 -2.34056e-24 0 -4.2612e-12 0 4.09544e-28
622 5 0.001 -0.00250002 0 -0.0341107 -2.34056e-24 0 2.67351e-12 0 1.50846e-28
623 5 0.001 -0.00250002 0 -0.0334732 -2.34056e-24 0 1.25164e-13 0 1.26105e-28
771 6 0.001 0.00250002 0 -0.0347483 2.34056e-24 0 -4.2612e-12 0 4.09544e-28
772 6 0.001 0.00250002 0 -0.0341107 2.34056e-24 0 2.67351e-12 0 1.50846e-28
773 6 0.001 0.00250002 0 -0.0334732 2.34056e-24 0 1.25164e-13 0 1.26105e-28
921 7 0.001 0.00749998 0 -0.0347483 -2.34056e-24 0 -4.2612e-12 0 4.09544e-28
922 7 0.001 0.00749998 0 -0.0341107 -2.34056e-24 0 2.67351e-12 0 1.50846e-28
923 7 0.001 0.00749998 0 -0.0334732 -2.34056e-24 0 1.25164e-13 0 1.26105e-28
1071 8 0.001 0.0125 0 -0.0347483 2.34056e-24 0 -4.2612e-12 0 4.09544e-28
1072 8 0.001 0.0125 0 -0.0341107 2.34056e-24 0 2.67351e-12 0 1.50846e-28
1073 8 0.001 0.0125 0 -0.0334732 2.34056e-24 0 1.25164e-13 0 1.26105e-28
1221 9 0.001 0.0175 0 -0.0347483 -2.34056e-24 0 -4.2612e-12 0 4.09544e-28
1222 9 0.001 0.0175 0 -0.0341107 -2.34056e-24 0 2.67351e-12 0 1.50846e-28
1223 9 0.001 0.0175 0 -0.0334732 -2.34056e-24 0 1.25164e-13 0 1.26105e-28
1371 10 0.001 0.0225 0 -0.0347483 -2.34056e-24 0 -4.2612e-12 0 4.09544e-28
1372 10 0.001 0.0225 0 -0.0341107 -2.34056e-24 0 2.67351e-12 0 1.50846e-28
1373 10 0.001 0.0225 0 -0.0334732 -2.34056e-24 0 1.25164e-13 0 1.26105e-28
24 1 0.001 -0.0225 0 -0.0328356 2.34056e-24 0 -2.04641e-12 0 9.30694e-29
25 1 0.001 -0.0225 0 -0.032198 2.34056e-24 0 -4.26313e-12 0 1.06837e-27
174 2 0.001 -0.0175 0 -0.0328356 2.34056e-24 0 -2.04641e-12 0 9.30694e-29
175 2 0.001 -0.0175 0 -0.032198 2.34056e-24 0 -4.26313e-12 0 1.06837e-27
324 3 0.001 -0.0125 0 -0.0328356 -2.34056e-24 0 -2.04641e-12 0 9.30694e-29
325 3 0.001 -0.0125 0 -0.032198 -2.34056e-24 0 -4.26313e-12 0 1.06837e-27
474 4 0.001 -0.00750002 0 -0.0328356 -2.34056e-24 0 -2.04641e-12 0 9.30694e-29
475 4 0.001 -0.00750002 0 -0.032198 -2.34056e-24 0 -4.26313e-12 0 1.06837e-27
624 5 0.001 -0.00250002 0 -0.0328356 -2.34056e-24 0 -2.04641e-12 0 9.30694e-29
625 5 0.001 -0.00250002 0 -0.032198 -2.34056e-24 0 -4.26313e-12 0 1.06837e-27
774 6 0.001 0.00250002 0 -0.0328356 2.34056e-24 0 -2.04641e-12 0 9.30694e-29
775 6 0.001 0.00250002 0 -0.032198 2.34056e-24 0 -4.26313e-12 0 1.06837e-27
924 7 0.001 0.00749998 0 -0.0328356 -2.34056e-24 0 -2.04641e-12 0 9.30694e-29
925 7 0.001 0.00749998 0 -0.032198 -2.34056e-24 0 -4.26313e-12 0 1.06837e-27
1074 8 0.001 0.0125 0 -0.0328356 2.34056e-24 0 -2.04641e-12 0 9.30694e-29
1075 8 0.001 0.0125 0 -0.032198 2.34056e-24 0 -4.26313e-12 0 1.06837e-27
1224 9 0.001 0.0175 0 -0.0328356 -2.34056e-24 0 -2.04641e-12 0 9.30694e-29
1225 9 0.001 0.0175 0 -0.032198 -2.34056e-24 0 -4.26313e-12 0 1.06837e-27
1374 10 0.001 0.0225 0 -0.0328356 -2.34056e-24 0 -2.04641e-12 0 9.30694e-29
1375 10 0.001 0.0225 0 -0.032198 -2.34056e-24 0 -4.26313e-12 0 1.06837e-27
26 1 0.001 -0.0225 0 -0.0315604 2.34056e-24 0 1.0093e-11 0 2.11414e-27
27 1 0.001 -0.0225 0 -0.0309228 2.34056e-24 0 -6.83371e-12 0 1.19755e-27
176 2 0.001 -0.0175 0 -0.0315604 2.34056e-24 0 1.0093e-11 0 2.11414e-27
177 2 0.001 -0.0175 0 -0.0309228 2.34056e-24 0 -6.83371e-12 0 1.19755e-27
326 3 0.001 -0.0125 0 -0.0315604 -2.34056e-24 0 1.0093e-11 0 2.11414e-27
327 3 0.001 -0.0125 0 -0.0309228 -2.34056e-24 0 -6.83371e-12 0 1.19755e-27
476 4 0.001 -0.00750002 0 -0.0315604 -2.34056e-24 0 1.0093e-11 0 2.11414e-27
477 4 0.001 -0.00750002 0 -0.0309228 -2.34056e-24 0 -6.83371e-12 0 1.19755e-27
626 5 0.001 -0.00250002 0 -0.0315604 -2.34056e-24 0 1.0093e-11 0 2.11414e-27
627 5 0.001 -0.00250002 0 -0.0309228 -2.34056e-24 0 -6.83371e-12 0 1.19755e-27
776 6 0.001 0.00250002 0 -0.0315604 2.34056e-24 0 1.0093e-11 0 2.11414e-27
777 6 0.001 0.00250002 0 -0.0309228 2.34056e-24 0 -6.83371e-12 0 1.19755e-27
926 7 0.001 0.00749998 0 -0.0315604 -2.34056e-24 0 1.0093e-11 0 2.11414e-27
927 7 0.001 0.00749998 0 -0.0309228 -2.34056e-24 0 -6.83371e-12 0 1.19755e-27
1076 8 0.001 0.0125 0 -0.0315604 2.34056e-24 0 1.0093e-11 0 2.11414e-27
1077 8 0.001 0.0125 0 -0.0309228 2.34056e-24 0 -6.83371e-12 0 1.19755e-27
1226 9 0.001 0.0175 0 -0.0315604 -2.34056e-24 0 1.0093e-11 0 2.11414e-27
1227 9 0.001 0.0175 0 -0.0309228 -2.34056e-24 0 -6.83371e-12 0 1.19755e-27
1376 10 0.001 0.0225 0 -0.0315604 -2.34056e-24 0 1.0093e-11 0 2.11414e-27
1377 10 0.001 0.0225 0 -0.0309228 -2.34056e-24 0 -6.83371e-12 0 1.19755e-27
28 1 0.001 -0.0225 0 -0.0302852 2.34056e-24 0 9.61028e-13 0 1.54469e-28
29 1 0.001 -0.0225 0 -0.0296477 2.34056e-24 0 1.31683e-12 0 3.75431e-29
30 1 0.001 -0.0225 0 -0.0290101 2.34056e-24 0 -7.51651e-13 0 1.34733e-29
178 2 0.001 -0.0175 0 -0.0302852 2.34056e-24 0 9.61028e-13 0 1.54469e-28
179 2 0.001 -0.0175 0 -0.0296477 2.34056e-24 0 1.31683e-12 0 3.75431e-29
180 2 0.001 -0.0175 0 -0.0290101 2.34056e-24 0 -7.51651e-13 0 1.34733e-29
328 3 0.001 -0.0125 0 -0.0302852 -2.34056e-24 0 9.61028e-13 0 1.54469e-28
329 3 0.001 -0.0125 0 -0.0296477 -2.34056e-24 0 1.31683e-12 0 3.75431e-29
330 3 0.001 -0.0125 0 -0.0290101 -2.34056e-24 0 -7.51651e-13 0 1.34733e-29
478 4 0.001 -0.00750002 0 -0.0302852 -2.34056e-24 0 9.61028e-13 0 1.54469e-28
479 4 0.001 -0.00750002 0 -0.0296477 -2.34056e-24 0 1.31683e-12 0 3.75431e-29
480 4 0.001 -0.00750002 0 -0.0290101 -2.34056e-24 0 -7.51651e-13 0 1.34733e-29
628 5 0.001 -0.00250002 0 -0.0302852 -2.34056e-24 0 9.61028e-13 0 1.54469e-28
629 5 0.001 -0.00250002 0 -0.0296477 -2.34056e-24 0 1.31683e-12 0 3.75431e-29
630 5 0.001 -0.00250002 0 -0.0290101 -2.34056e-24 0 -7.51651e-13 0 1.34733e-29
778 6 0.001 0.00250002 0 -0.0302852 2.34056e-24 0 9.61028e-13 0 1.54469e-28
779 6 0.001 0.00250002 0 -0.0296477 2.34056e-24 0 1.31683e-12 0 3.75431e-29
780 6 0.001 0.00250002 0 -0.0290101 2.34056e-24 0 -7.51651e-13 0 1.34733e-29
928 7 0.001 0.00749998 0 -0.0302852 -2.34056e-24 0 9.61028e-13 0 1.54469e-28
929 7 0.001 0.00749998 0 -0.0296477 -2.34056e-24 0 1.31683e-12 0 3.75431e-29
930 7 0.001 0.00749998 0 -0.0290101 -2.34056e-24 0 -7.51651e-13 0 1.34733e-29
1078 8 0.001 0.0125 0 -0.0302852 2.34056e-24 0 9.61028e-13 0 1.54469e-28
1079 8 0.001 0.0125 0 -0.0296477 2.34056e-24 0 1.31683e-12 0 3.75431e-29
1080 8 0.001 0.0125 0 -0.0290101 2.34056e-24 0 -7.51651e-13 0 1.34733e-29
1228 9 0.001 0.0175 0 -0.0302852 -2.34056e-24 0 9.61028e-13 0 1.54469e-28
1229 9 0.001 0.0175 0 -0.0296477 -2.34056e-24 0 1.31683e-12 0 3.75431e-29
1230 9 0.001 0.0175 0 -0.0290101 -2.34056e-24 0 -7.51651e-13 0 1.34733e-29
1378 10 0.001 0.0225 0 -0.0302852 -2.34056e-24 0 9.61028e-13 0 1.54469e-28
1379 10 0.001 0.0225 0 -0.0296477 -2.34056e-24 0 1.31683e-12 0 3.75431e-29
1380 10 0.001 0.0225 0 -0.0290101 -2.34056e-24 0 -7.51651e-13 0 1.34733e-29
31 1 0.001 -0.0225 0 -0.0283725 2.34056e-24 0 5.84597e-13 0 7.41077e-30
32 1 0.001 -0.0225 0 -0.0277349 2.34056e-24 0 6.26111e-14 0 1.2362e-29
181 2 0.001 -0.0175 0 -0.0283725 2.34056e-24 0 5.84597e-13 0 7.41077e-30
182 2 0.001 -0.0175 0 -0.0277349 2.34056e-24 0 6.26111e-14 0 1.2362e-29
331 3 0.001 -0.0125 0 -0.0283725 -2.34056e-24 0 5.84597e-13 0 7.41077e-30
332 3 0.001 -0.0125 0 -0.0277349 -2.34056e-24 0 6.26111e-14 0 1.2362e-29
481 4 0.001 -0.00750002 0 -0.0283725 -2.34056e-24 0 5.84597e-13 0 7.41077e-30
482 4 0.001 -0.00750002 0 -0.0277349 -2.34056e-24 0 6.26111e-14 0 1.2362e-29
631 5 0.001 -0.00250002 0 -0.0283725 -2.34056e-24 0 5.84597e-13 0 7.41077e-30
632 5 0.001 -0.00250002 0 -0.0277349 -2.34056e-24 0 6.26111e-14 0 1.2362e-29
781 6 0.001 0.00250002 0 -0.0283725 2.34056e-24 0 5.84597e-13 0 7.41077e-30
782 6 0.001 0.00250002 0 -0.0277349 2.34056e-24 0 6.26111e-14 0 1.2362e-29
931 7 0.001 0.00749998 0 -0.0283725 -2.34056e-24 0 5.84597e-13 0 7.41077e-30
932 7 0.001 0.00749998 0 -0.0277349 -2.34056e-24 0 6.26111e-14 0 1.2362e-29
1081 8 0.001 0.0125 0 -0.0283725 2.34056e-24 0 5.84597e-13 0 7.41077e-30
1082 8 0.001 0.0125 0 -0.0277349 2.34056e-24 0 6.26111e-14 0 1.2362e-29
1231 9 0.001 0.0175 0 -0.0283725 -2.34056e-24 0 5.84597e-13 0 7.41077e-30
1232 9 0.001 0.0175 0 -0.0277349 -2.34056e-24 0 6.26111e-14 0 1.2362e-29
1381 10 0.001 0.0225 0 -0.0283725 -2.34056e-24 0 5.84597e-13 0 7.41077e-30
1382 10 0.001 0.0225 0 -0.0277349 -2.34056e-24 0 6.26111e-14 0 1.2362e-29
33 1 0.001 -0.0225 0 -0.0270973 2.34056e-24 0 1.46356e-12 0 1.53681e-28
34 1 0.001 -0.0225 0 -0.0264597 2.34056e-24 0 -8.54727e-12 0 1.9919e-27
35 1 0.001 -0.0225 0 -0.0258221 2.34056e-24 0 9.25707e-12 0 2.12366e-27
183 2 0.001 -0.0175 0 -0.0270973 2.34056e-24 0 1.46356e-12 0 1.53681e-28
184 2 0.001 -0.0175 0 -0.0264597 2.34056e-24 0 -8.54727e-12 0 1.9919e-27
185 2 0.001 -0.0175 0 -0.0258221 2.34056e-24 0 9.25707e-12 0 2.12366e-27
333 3 0.001 -0.0125 0 -0.0270973 -2.34056e-24 0 1.46356e-12 0 1.53681e-28
334 3 0.001 -0.0125 0 -0.0264597 -2.34056e-24 0 -8.54727e-12 0 1.9919e-27
335 3 0.001 -0.0125 0 -0.0258221 -2.34056e-24 0 9.25707e-12 0 2.12366e-27
483 4 0.001 -0.00750002 0 -0.0270973 -2.34056e-24 0 1.46356e-12 0 1.53681e-28
484 4 0.001 -0.00750002 0 -0.0264597 -2.34056e-24 0 -8.54727e-12 0 1.9919e-27
485 4 0.001 -0.00750002 0 -0.0258221 -2.34056e-24 0 9.25707e-12 0 2.12366e-27
633 5 0.001 -0.00250002 0 -0.0270973 -2.34056e-24 0 1.46356e-12 0 1.53681e-28
634 5 0.001 -0.00250002 0 -0.0264597 -2.34056e-24 0 -8.54727e-12 0 1.9919e-27
635 5 0.001 -0.00250002 0 -0.0258221 -2.34056e-24 0 9.25707e-12 0 2.12366e-27
783 6 0.001 0.00250002 0 -0.0270973 2.34056e-24 0 1.46356e-12 0 1.53681e-28
784 6 0.001 0.00250002 0 -0.0264597 2.34056e-24 0 -8.54727e-12 0 1.9919e-27
785 6 0.001 0.00250002 0 -0.0258221 2.34056e-24 0 9.25707e-12 0 2.12366e-27
933 7 0.001 0.00749998 0 -0.0270973 -2.34056e-24 0 1.46356e-12 0 1.53681e-28
934 7 0.001 0.00749998 0 -0.0264597 -2.34056e-24 0 -8.54727e-12 0 1.9919e-27
935 7 0.001 0.00749998 0 -0.0258221 -2.34056e-24 0 9.25707e-12 0 2.12366e-27
1083 8 0.001 0.0125 0 -0.0270973 2.34056e-24 0 1.46356e-12 0 1.53681e-28
1084 8 0.001 0.0125 0 -0.0264597 2.34056e-24 0 -8.54727e-12 0 1.9919e-27
1085 8 0.001 0.0125 0 -0.0258221 2.34056e-24 0 9.25707e-12 0 2.12366e-27
1233 9 0.001 0.0175 0 -0.0270973 -2.34056e-24 0 1.46356e-12 0 1.53681e-28
1234 9 0.001 0.0175 0 -0.0264597 -2.34056e-24 0 -8.54727e-12 0 1.9919e-27
1235 9 0.001 0.0175 0 -0.0258221 -2.34056e-24 0 9.25707e-12 0 2.12366e-27
1383 10 0.001 0.0225 0 -0.0270973 -2.34056e-24 0 1.46356e-12 0 1.53681e-28
1384 10 0.001 0.0225 0 -0.0264597 -2.34056e-24 0 -8.54727e-12 0 1.9919e-27
1385 10 0.001 0.0225 0 -0.0258221 -2.34056e-24 0 9.25707e-12 0 2.12366e-27
36 1 0.001 -0.0225 0 -0.0251846 2.34056e-24 0 -1.56739e-12 0 3.21603e-28
37 1 0.001 -0.0225 0 -0.024547 2.34056e-24 0 1.48325e-12 0 3.03928e-28
186 2 0.001 -0.0175 0 -0.0251846 2.34056e-24 0 -1.56739e-12 0 3.21603e-28
187 2 0.001 -0.0175 0 -0.024547 2.34056e-24 0 1.48325e-12 0 3.03928e-28
336 3 0.001 -0.0125 0 -0.0251846 -2.34056e-24 0 -1.56739e-12 0 3.21603e-28
337 3 0.001 -0.0125 0 -0.024547 -2.34056e-24 0 1.48325e-12 0 3.03928e-28
486 4 0.001 -0.00750002 0 -0.0251846 -2.34056e-24 0 -1.56739e-12 0 3.21603e-28
487 4 0.001 -0.00750002 0 -0.024547 -2.34056e-24 0 1.48325e-12 0 3.03928e-28
636 5 0.001 -0.00250002 0 -0.0251846 -2.34056e-24 0 -1.56739e-12 0 3.21603e-28
637 5 0.001 -0.00250002 0 -0.024547 -2.34056e-24 0 1.48325e-12 0 3.03928e-28
786 6 0.001 0.00250002 0 -0.0251846 2.34056e-24 0 -1.56739e-12 0 3.21603e-28
787 6 0.001 0.00250002 0 -0.024547 2.34056e-24 0 1.48325e-12 0 3.03928e-28
936 7 0.001 0.00749998 0 -0.0251846 -2.34056e-24 0 -1.56739e-12 0 3.21603e-28
937 7 0.001 0.00749998 0 -0.024547 -2.34056e-24 0 1.48325e-12 0 3.03928e-28
1086 8 0.001 0.0125 0 -0.0251846 2.34056e-24 0 -1.56739e-12 0 3.21603e-28
1087 8 0.001 0.0125 0 -0.024547 2.34056e-24 0 1.48325e-12 0 3.03928e-28
1236 9 0.001 0.0175 0 -0.0251846 -2.34056e-24 0 -1.56739e-12 0 3.21603e-28
1237 9 0.001 0.0175 0 -0.024547 -2.34056e-24 0 1.48325e-12 0 3.03928e-28
1386 10 0.001 0.0225 0 -0.0251846 -2.34056e-24 0 -1.56739e-12 0 3.21603e-28
1387 10 0.001 0.0225 0 -0.024547 -2.34056e-24 0 1.48325e-12 0 3.03928e-28
38 1 0.001 -0.0225 0 -0.0239094 2.34056e-24 0 -2.27719e-12 0 2.62734e-28
39 1 0.001 -0.0225 0 -0.0232718 2.34056e-24 0 -3.76032e-12 0 5.2037e-28
188 2 0.001 -0.0175 0 -0.0239094 2.34056e-24 0 -2.27719e-12 0 2.62734e-28
189 2 0.001 -0.0175 0 -0.0232718 2.34056e-24 0 -3.76032e-12 0 5.2037e-28
338 3 0.001 -0.0125 0 -0.0239094 -2.34056e-24 0 -2.27719e-12 0 2.62734e-28
339 3 0.001 -0.0125 0 -0.0232718 -2.34056e-24 0 -3.76032e-12 0 5.2037e-28
488 4 0.001 -0.00750002 0 -0.0239094 -2.34056e-24 0 -2.27719e-12 0 2.62734e-28
489 4 0.001 -0.00750002 0 -0.0232718 -2.34056e-24 0 -3.76032e-12 0 5.2037e-28
638 5 0.001 -0.00250002 0 -0.0239094 -2.34056e-24 0 -2.27719e-12 0 2.62734e-28
639 5 0.001 -0.00250002 0 -0.0232718 -2.34056e-24 0 -3.76032e-12 0 5.2037e-28
788 6 0.001 0.00250002 0 -0.0239094 2.34056e-24 0 -2.27719e-12 0 2.62734e-28
789 6 0.001 0.00250002 0 -0.0232718 2.34056e-24 0 -3.76032e-12 0 5.2037e-28
938 7 0.001 0.00749998 0 -0.0239094 -2.34056e-24 0 -2.27719e-12 0 2.62734e-28
939 7 0.001 0.00749998 0 -0.0232718 -2.34056e-24 0 -3.76032e-12 0 5.2037e-28
1088 8 0.001 0.0125 0 -0.0239094 2.34056e-24 0 -2.27719e-12 0 2.62734e-28
1089 8 0.001 0.0125 0 -0.0232718 2.34056e-24 0 -3.76032e-12 0 5.2037e-28
1238 9 0.001 0.0175 0 -0.0239094 -2.34056e-24 0 -2.27719e-12 0 2.62734e-28
1239 9 0.001 0.0175 0 -0.0232718 -2.34056e-24 0 -3.76032e-12 0 5.2037e-28
1388 10 0.001 0.0225 0 -0.0239094 -2.34056e-24 0 -2.27719e-12 0 2.62734e-28
1389 10 0.001 0.0225 0 -0.0232718 -2.34056e-24 0 -3.76032e-12 0 5.2037e-28
40 1 0.001 -0.0225 0 -0.0226342 2.34056e-24 0 1.62967e-12 0 6.68609e-28
41 1 0.001 -0.0225 0 -0.0219966 2.34056e-24 0 5.70421e-12 0 7.50116e-28
42 1 0.001 -0.0225 0 -0.0213591 2.34056e-24 0 -8.17104e-12 0 1.39211e-27
190 2 0.001 -0.0175 0 -0.0226342 2.34056e-24 0 1.62967e-12 0 6.68609e-28
191 2 0.001 -0.0175 0 -0.0219966 2.34056e-24 0 5.70421e-12 0 7.50116e-28