ITEM: TIMESTEP
1300000
ITEM: NUMBER OF ATOMS
1500
ITEM: BOX BOUNDS ff ff ff
-2.5000000000000001e-02 2.5000000000000001e-02
-5.0000000000000001e-03 5.0000000000000001e-03
-5.0000000000000003e-02 5.0000000000000003e-02
ITEM: ATOMS id type radius x y z fx fy fz c_bendingE c_stretchingE
1 1 0.001 -0.0225 0 -0.0475 8.50484e-20 0 1.3772e-12 0 7.87241e-29
151 2 0.001 -0.0175 0 -0.0475 8.50484e-20 0 1.3772e-12 0 7.87241e-29
301 3 0.001 -0.0125 0 -0.0475 -8.50484e-20 0 1.3772e-12 0 7.87241e-29
451 4 0.001 -0.00750001 0 -0.0475 -8.50484e-20 0 1.3772e-12 0 7.87241e-29
601 5 0.001 -0.00250001 0 -0.0475 -8.50484e-20 0 1.3772e-12 0 7.87241e-29
751 6 0.001 0.00250001 0 -0.0475 8.50484e-20 0 1.3772e-12 0 7.87241e-29
901 7 0.001 0.00749999 0 -0.0475 -8.50484e-20 0 1.3772e-12 0 7.87241e-29
1051 8 0.001 0.0125 0 -0.0475 8.50484e-20 0 1.3772e-12 0 7.87241e-29
1201 9 0.001 0.0175 0 -0.0475 -8.50484e-20 0 1.3772e-12 0 7.87241e-29
1351 10 0.001 0.0225 0 -0.0475 -8.50484e-20 0 1.3772e-12 0 7.87241e-29
2 1 0.001 -0.0225 0 -0.0468624 8.50484e-20 0 -8.42095e-14 0 1.48182e-28
3 1 0.001 -0.0225 0 -0.0462248 8.50484e-20 0 -4.01246e-12 0 3.76196e-28
4 1 0.001 -0.0225 0 -0.0455872 8.50484e-20 0 3.38617e-12 0 3.25188e-28
152 2 0.001 -0.0175 0 -0.0468624 8.50484e-20 0 -8.42095e-14 0 1.48182e-28
153 2 0.001 -0.0175 0 -0.0462248 8.50484e-20 0 -4.01246e-12 0 3.76196e-28
154 2 0.001 -0.0175 0 -0.0455872 8.50484e-20 0 3.38617e-12 0 3.25188e-28
302 3 0.001 -0.0125 0 -0.0468624 -8.50484e-20 0 -8.42095e-14 0 1.48182e-28
303 3 0.001 -0.0125 0 -0.0462248 -8.50484e-20 0 -4.01246e-12 0 3.76196e-28
304 3 0.001 -0.0125 0 -0.0455872 -8.50484e-20 0 3.38617e-12 0 3.25188e-28
452 4 0.001 -0.00750001 0 -0.0468624 -8.50484e-20 0 -8.42095e-14 0 1.48182e-28
453 4 0.001 -0.00750001 0 -0.0462248 -8.50484e-20 0 -4.01246e-12 0 3.76196e-28
454 4 0.001 -0.00750001 0 -0.0455872 -8.50484e-20 0 3.38617e-12 0 3.25188e-28
602 5 0.001 -0.00250001 0 -0.0468624 -8.50484e-20 0 -8.42095e-14 0 1.48182e-28
603 5 0.001 -0.00250001 0 -0.0462248 -8.50484e-20 0 -4.01246e-12 0 3.76196e-28
604 5 0.001 -0.00250001 0 -0.0455872 -8.50484e-20 0 3.38617e-12 0 3.25188e-28
752 6 0.001 0.00250001 0 -0.0468624 8.50484e-20 0 -8.42095e-14 0 1.48182e-28
753 6 0.001 0.00250001 0 -0.0462248 8.50484e-20 0 -4.01246e-12 0 3.76196e-28
754 6 0.001 0.00250001 0 -0.0455872 8.50484e-20 0 3.38617e-12 0 3.25188e-28
902 7 0.001 0.00749999 0 -0.0468624 -8.50484e-20 0 -8.42095e-14 0 1.48182e-28
903 7 0.001 0.00749999 0 -0.0462248 -8.50484e-20 0 -4.01246e-12 0 3.76196e-28
904 7 0.001 0.00749999 0 -0.0455872 -8.50484e-20 0 3.38617e-12 0 3.25188e-28
1052 8 0.001 0.0125 0 -0.0468624 8.50484e-20 0 -8.42095e-14 0 1.48182e-28
1053 8 0.001 0.0125 0 -0.0462248 8.50484e-20 0 -4.01246e-12 0 3.76196e-28
1054 8 0.001 0.0125 0 -0.0455872 8.50484e-20 0 3.38617e-12 0 3.25188e-28
1202 9 0.001 0.0175 0 -0.0468624 -8.50484e-20 0 -8.42095e-14 0 1.48182e-28
1203 9 0.001 0.0175 0 -0.0462248 -8.50484e-20 0 -4.01246e-12 0 3.76196e-28
1204 9 0.001 0.0175 0 -0.0455872 -8.50484e-20 0 3.38617e-12 0 3.25188e-28
1352 10 0.001 0.0225 0 -0.0468624 -8.50484e-20 0 -8.42095e-14 0 1.48182e-28
1353 10 0.001 0.0225 0 -0.0462248 -8.50484e-20 0 -4.01246e-12 0 3.76196e-28
1354 10 0.001 0.0225 0 -0.0455872 -8.50484e-20 0 3.38617e-12 0 3.25188e-28
5 1 0.001 -0.0225 0 -0.0449497 8.50484e-20 0 9.62154e-13 0 1.28452e-28
6 1 0.001 -0.0225 0 -0.0443121 8.50484e-20 0 -2.04924e-12 0 1.17319e-28
155 2 0.001 -0.0175 0 -0.0449497 8.50484e-20 0 9.62154e-13 0 1.28452e-28
156 2 0.001 -0.0175 0 -0.0443121 8.50484e-20 0 -2.04924e-12 0 1.17319e-28
305 3 0.001 -0.0125 0 -0.0449497 -8.50484e-20 0 9.62154e-13 0 1.28452e-28
306 3 0.001 -0.0125 0 -0.0443121 -8.50484e-20 0 -2.04924e-12 0 1.17319e-28
455 4 0.001 -0.00750001 0 -0.0449497 -8.50484e-20 0 9.62154e-13 0 1.28452e-28
456 4 0.001 -0.00750001 0 -0.0443121 -8.50484e-20 0 -2.04924e-12 0 1.17319e-28
605 5 0.001 -0.00250001 0 -0.0449497 -8.50484e-20 0 9.62154e-13 0 1.28452e-28
606 5 0.001 -0.00250001 0 -0.0443121 -8.50484e-20 0 -2.04924e-12 0 1.17319e-28
755 6 0.001 0.00250001 0 -0.0449497 8.50484e-20 0 9.62154e-13 0 1.28452e-28
756 6 0.001 0.00250001 0 -0.0443121 8.50484e-20 0 -2.04924e-12 0 1.17319e-28
905 7 0.001 0.00749999 0 -0.0449497 -8.50484e-20 0 9.62154e-13 0 1.28452e-28
906 7 0.001 0.00749999 0 -0.0443121 -8.50484e-20 0 -2.04924e-12 0 1.17319e-28
1055 8 0.001 0.0125 0 -0.0449497 8.50484e-20 0 9.62154e-13 0 1.28452e-28
1056 8 0.001 0.0125 0 -0.0443121 8.50484e-20 0 -2.04924e-12 0 1.17319e-28
1205 9 0.001 0.0175 0 -0.0449497 -8.50484e-20 0 9.62154e-13 0 1.28452e-28
1206 9 0.001 0.0175 0 -0.0443121 -8.50484e-20 0 -2.04924e-12 0 1.17319e-28
1355 10 0.001 0.0225 0 -0.0449497 -8.50484e-20 0 9.62154e-13 0 1.28452e-28
1356 10 0.001 0.0225 0 -0.0443121 -8.50484e-20 0 -2.04924e-12 0 1.17319e-28
7 1 0.001 -0.0225 0 -0.0436745 8.50484e-20 0 -2.91738e-13 0 2.83848e-29
8 1 0.001 -0.0225 0 -0.0430369 8.50484e-20 0 3.84448e-12 0 4.28348e-28
157 2 0.001 -0.0175 0 -0.0436745 8.50484e-20 0 -2.91738e-13 0 2.83848e-29
158 2 0.001 -0.0175 0 -0.0430369 8.50484e-20 0 3.84448e-12 0 4.28348e-28
307 3 0.001 -0.0125 0 -0.0436745 -8.50484e-20 0 -2.91738e-13 0 2.83848e-29
308 3 0.001 -0.0125 0 -0.0430369 -8.50484e-20 0 3.84448e-12 0 4.28348e-28
457 4 0.001 -0.00750001 0 -0.0436745 -8.50484e-20 0 -2.91738e-13 0 2.83848e-29
458 4 0.001 -0.00750001 0 -0.0430369 -8.50484e-20 0 3.84448e-12 0 4.28348e-28
607 5 0.001 -0.00250001 0 -0.0436745 -8.50484e-20 0 -2.91738e-13 0 2.83848e-29
608 5 0.001 -0.00250001 0 -0.0430369 -8.50484e-20 0 3.84448e-12 0 4.28348e-28
757 6 0.001 0.00250001 0 -0.0436745 8.50484e-20 0 -2.91738e-13 0 2.83848e-29
758 6 0.001 0.00250001 0 -0.0430369 8.50484e-20 0 3.84448e-12 0 4.28348e-28
907 7 0.001 0.00749999 0 -0.0436745 -8.50484e-20 0 -2.91738e-13 0 2.83848e-29
908 7 0.001 0.00749999 0 -0.0430369 -8.50484e-20 0 3.84448e-12 0 4.28348e-28
1057 8 0.001 0.0125 0 -0.0436745 8.50484e-20 0 -2.91738e-13 0 2.83848e-29
1058 8 0.001 0.0125 0 -0.0430369 8.50484e-20 0 3.84448e-12 0 4.28348e-28
1207 9 0.001 0.0175 0 -0.0436745 -8.50484e-20 0 -2.91738e-13 0 2.83848e-29
1208 9 0.001 0.0175 0 -0.0430369 -8.50484e-20 0 3.84448e-12 0 4.28348e-28
1357 10 0.001 0.0225 0 -0.0436745 -8.50484e-20 0 -2.91738e-13 0 2.83848e-29
1358 10 0.001 0.0225 0 -0.0430369 -8.50484e-20 0 3.84448e-12 0 4.28348e-28
9 1 0.001 -0.0225 0 -0.0423993 8.50484e-20 0 -4.30529e-12 0 4.64308e-28
10 1 0.001 -0.0225 0 -0.0417617 8.50484e-20 0 -3.21749e-12 0 8.5701e-28
11 1 0.001 -0.0225 0 -0.0411242 8.50484e-20 0 8.60858e-12 0 1.53883e-27
159 2 0.001 -0.0175 0 -0.0423993 8.50484e-20 0 -4.30529e-12 0 4.64308e-28
160 2 0.001 -0.0175 0 -0.0417617 8.50484e-20 0 -3.21749e-12 0 8.5701e-28
161 2 0.001 -0.0175 0 -0.0411242 8.50484e-20 0 8.60858e-12 0 1.53883e-27
309 3 0.001 -0.0125 0 -0.0423993 -8.50484e-20 0 -4.30529e-12 0 4.64308e-28
310 3 0.001 -0.0125 0 -0.0417617 -8.50484e-20 0 -3.21749e-12 0 8.5701e-28
311 3 0.001 -0.0125 0 -0.0411242 -8.50484e-20 0 8.60858e-12 0 1.53883e-27
459 4 0.001 -0.00750001 0 -0.0423993 -8.50484e-20 0 -4.30529e-12 0 4.64308e-28
460 4 0.001 -0.00750001 0 -0.0417617 -8.50484e-20 0 -3.21749e-12 0 8.5701e-28
461 4 0.001 -0.00750001 0 -0.0411242 -8.50484e-20 0 8.60858e-12 0 1.53883e-27
609 5 0.001 -0.00250001 0 -0.0423993 -8.50484e-20 0 -4.30529e-12 0 4.64308e-28
610 5 0.001 -0.00250001 0 -0.0417617 -8.50484e-20 0 -3.21749e-12 0 8.5701e-28
611 5 0.001 -0.00250001 0 -0.0411242 -8.50484e-20 0 8.60858e-12 0 1.53883e-27
759 6 0.001 0.00250001 0 -0.0423993 8.50484e-20 0 -4.30529e-12 0 4.64308e-28
760 6 0.001 0.00250001 0 -0.0417617 8.50484e-20 0 -3.21749e-12 0 8.5701e-28
761 6 0.001 0.00250001 0 -0.0411242 8.50484e-20 0 8.60858e-12 0 1.53883e-27
909 7 0.001 0.00749999 0 -0.0423993 -8.50484e-20 0 -4.30529e-12 0 4.64308e-28
910 7 0.001 0.00749999 0 -0.0417617 -8.50484e-20 0 -3.21749e-12 0 8.5701e-28
911 7 0.001 0.00749999 0 -0.0411242 -8.50484e-20 0 8.60858e-12 0 1.53883e-27
1059 8 0.001 0.0125 0 -0.0423993 8.50484e-20 0 -4.30529e-12 0 4.64308e-28
1060 8 0.001 0.0125 0 -0.0417617 8.50484e-20 0 -3.21749e-12 0 8.5701e-28
1061 8 0.001 0.0125 0 -0.0411242 8.50484e-20 0 8.60858e-12 0 1.53883e-27
1209 9 0.001 0.0175 0 -0.0423993 -8.50484e-20 0 -4.30529e-12 0 4.64308e-28
1210 9 0.001 0.0175 0 -0.0417617 -8.50484e-20 0 -3.21749e-12 0 8.5701e-28
1211 9 0.001 0.0175 0 -0.0411242 -8.50484e-20 0 8.60858e-12 0 1.53883e-27
1359 10 0.001 0.0225 0 -0.0423993 -8.50484e-20 0 -4.30529e-12 0 4.64308e-28
1360 10 0.001 0.0225 0 -0.0417617 -8.50484e-20 0 -3.21749e-12 0 8.5701e-28
1361 10 0.001 0.0225 0 -0.0411242 -8.50484e-20 0 8.60858e-12 0 1.53883e-27
12 1 0.001 -0.0225 0 -0.0404866 8.50484e-20 0 -6.6853e-12 0 9.91606e-28
13 1 0.001 -0.0225 0 -0.039849 8.50484e-20 0 3.55141e-12 0 3.01591e-28
162 2 0.001 -0.0175 0 -0.0404866 8.50484e-20 0 -6.6853e-12 0 9.91606e-28
163 2 0.001 -0.0175 0 -0.039849 8.50484e-20 0 3.55141e-12 0 3.01591e-28
312 3 0.001 -0.0125 0 -0.0404866 -8.50484e-20 0 -6.6853e-12 0 9.91606e-28
313 3 0.001 -0.0125 0 -0.039849 -8.50484e-20 0 3.55141e-12 0 3.01591e-28
462 4 0.001 -0.00750001 0 -0.0404866 -8.50484e-20 0 -6.6853e-12 0 9.91606e-28
463 4 0.001 -0.00750001 0 -0.039849 -8.50484e-20 0 3.55141e-12 0 3.01591e-28
612 5 0.001 -0.00250001 0 -0.0404866 -8.50484e-20 0 -6.6853e-12 0 9.91606e-28
613 5 0.001 -0.00250001 0 -0.039849 -8.50484e-20 0 3.55141e-12 0 3.01591e-28
762 6 0.001 0.00250001 0 -0.0404866 8.50484e-20 0 -6.6853e-12 0 9.91606e-28
763 6 0.001 0.00250001 0 -0.039849 8.50484e-20 0 3.55141e-12 0 3.01591e-28
912 7 0.001 0.00749999 0 -0.0404866 -8.50484e-20 0 -6.6853e-12 0 9.91606e-28
913 7 0.001 0.00749999 0 -0.039849 -8.50484e-20 0 3.55141e-12 0 3.01591e-28
1062 8 0.001 0.0125 0 -0.0404866 8.50484e-20 0 -6.6853e-12 0 9.91606e-28
1063 8 0.001 0.0125 0 -0.039849 8.50484e-20 0 3.55141e-12 0 3.01591e-28
1212 9 0.001 0.0175 0 -0.0404866 -8.50484e-20 0 -6.6853e-12 0 9.91606e-28
1213 9 0.001 0.0175 0 -0.039849 -8.50484e-20 0 3.55141e-12 0 3.01591e-28
1362 10 0.001 0.0225 0 -0.0404866 -8.50484e-20 0 -6.6853e-12 0 9.91606e-28
1363 10 0.001 0.0225 0 -0.039849 -8.50484e-20 0 3.55141e-12 0 3.01591e-28
14 1 0.001 -0.0225 0 -0.0392114 8.50484e-20 0 1.6302e-12 0 3.54685e-28
15 1 0.001 -0.0225 0 -0.0385738 8.50484e-20 0 -5.64138e-12 0 6.61561e-28
16 1 0.001 -0.0225 0 -0.0379362 8.50484e-20 0 2.92414e-12 0 3.55707e-28
164 2 0.001 -0.0175 0 -0.0392114 8.50484e-20 0 1.6302e-12 0 3.54685e-28
165 2 0.001 -0.0175 0 -0.0385738 8.50484e-20 0 -5.64138e-12 0 6.61561e-28
166 2 0.001 -0.0175 0 -0.0379362 8.50484e-20 0 2.92414e-12 0 3.55707e-28
314 3 0.001 -0.0125 0 -0.0392114 -8.50484e-20 0 1.6302e-12 0 3.54685e-28
315 3 0.001 -0.0125 0 -0.0385738 -8.50484e-20 0 -5.64138e-12 0 6.61561e-28
316 3 0.001 -0.0125 0 -0.0379362 -8.50484e-20 0 2.92414e-12 0 3.55707e-28
464 4 0.001 -0.00750001 0 -0.0392114 -8.50484e-20 0 1.6302e-12 0 3.54685e-28
465 4 0.001 -0.00750001 0 -0.0385738 -8.50484e-20 0 -5.64138e-12 0 6.61561e-28
466 4 0.001 -0.00750001 0 -0.0379362 -8.50484e-20 0 2.92414e-12 0 3.55707e-28
614 5 0.001 -0.00250001 0 -0.0392114 -8.50484e-20 0 1.6302e-12 0 3.54685e-28
615 5 0.001 -0.00250001 0 -0.0385738 -8.50484e-20 0 -5.64138e-12 0 6.61561e-28
616 5 0.001 -0.00250001 0 -0.0379362 -8.50484e-20 0 2.92414e-12 0 3.55707e-28
764 6 0.001 0.00250001 0 -0.0392114 8.50484e-20 0 1.6302e-12 0 3.54685e-28
765 6 0.001 0.00250001 0 -0.0385738 8.50484e-20 0 -5.64138e-12 0 6.61561e-28
766 6 0.001 0.00250001 0 -0.0379362 8.50484e-20 0 2.92414e-12 0 3.55707e-28
914 7 0.001 0.00749999 0 -0.0392114 -8.50484e-20 0 1.6302e-12 0 3.54685e-28
915 7 0.001 0.00749999 0 -0.0385738 -8.50484e-20 0 -5.64138e-12 0 6.61561e-28
916 7 0.001 0.00749999 0 -0.0379362 -8.50484e-20 0 2.92414e-12 0 3.55707e-28
1064 8 0.001 0.0125 0 -0.0392114 8.50484e-20 0 1.6302e-12 0 3.54685e-28
1065 8 0.001 0.0125 0 -0.0385738 8.50484e-20 0 -5.64138e-12 0 6.61561e-28
1066 8 0.001 0.0125 0 -0.0379362 8.50484e-20 0 2.92414e-12 0 3.55707e-28
1214 9 0.001 0.0175 0 -0.0392114 -8.50484e-20 0 1.6302e-12 0 3.54685e-28
1215 9 0.001 0.0175 0 -0.0385738 -8.50484e-20 0 -5.64138e-12 0 6.61561e-28
1216 9 0.001 0.0175 0 -0.0379362 -8.50484e-20 0 2.92414e-12 0 3.55707e-28
1364 10 0.001 0.0225 0 -0.0392114 -8.50484e-20 0 1.6302e-12 0 3.54685e-28
1365 10 0.001 0.0225 0 -0.0385738 -8.50484e-20 0 -5.64138e-12 0 6.61561e-28
1366 10 0.001 0.0225 0 -0.0379362 -8.50484e-20 0 2.92414e-12 0 3.55707e-28
17 1 0.001 -0.0225 0 -0.0372987 8.50484e-20 0 2.88362e-12 0 3.44685e-28
18 1 0.001 -0.0225 0 -0.0366611 8.50484e-20 0 -4.6389e-12 0 4.72854e-28
167 2 0.001 -0.0175 0 -0.0372987 8.50484e-20 0 2.88362e-12 0 3.44685e-28
168 2 0.001 -0.0175 0 -0.0366611 8.50484e-20 0 -4.6389e-12 0 4.72854e-28
317 3 0.001 -0.0125 0 -0.0372987 -8.50484e-20 0 2.88362e-12 0 3.44685e-28
318 3 0.001 -0.0125 0 -0.0366611 -8.50484e-20 0 -4.6389e-12 0 4.72854e-28
467 4 0.001 -0.00750001 0 -0.0372987 -8.50484e-20 0 2.88362e-12 0 3.44685e-28
468 4 0.001 -0.00750001 0 -0.0366611 -8.50484e-20 0 -4.6389e-12 0 4.72854e-28
617 5 0.001 -0.00250001 0 -0.0372987 -8.50484e-20 0 2.88362e-12 0 3.44685e-28
618 5 0.001 -0.00250001 0 -0.0366611 -8.50484e-20 0 -4.6389e-12 0 4.72854e-28
767 6 0.001 0.00250001 0 -0.0372987 8.50484e-20 0 2.88362e-12 0 3.44685e-28
768 6 0.001 0.00250001 0 -0.0366611 8.50484e-20 0 -4.6389e-12 0 4.72854e-28
917 7 0.001 0.00749999 0 -0.0372987 -8.50484e-20 0 2.88362e-12 0 3.44685e-28
918 7 0.001 0.00749999 0 -0.0366611 -8.50484e-20 0 -4.6389e-12 0 4.72854e-28
1067 8 0.001 0.0125 0 -0.0372987 8.50484e-20 0 2.88362e-12 0 3.44685e-28
1068 8 0.001 0.0125 0 -0.0366611 8.50484e-20 0 -4.6389e-12 0 4.72854e-28
1217 9 0.001 0.0175 0 -0.0372987 -8.50484e-20 0 2.88362e-12 0 3.44685e-28
1218 9 0.001 0.0175 0 -0.0366611 -8.50484e-20 0 -4.6389e-12 0 4.72854e-28
1367 10 0.001 0.0225 0 -0.0372987 -8.50484e-20 0 2.88362e-12 0 3.44685e-28
1368 10 0.001 0.0225 0 -0.0366611 -8.50484e-20 0 -4.6389e-12 0 4.72854e-28
19 1 0.001 -0.0225 0 -0.0360235 8.50484e-20 0 4.09625e-12 0 3.55136e-28
20 1 0.001 -0.0225 0 -0.0353859 8.50484e-20 0 -5.64294e-12 0 6.79952e-28
169 2 0.001 -0.0175 0 -0.0360235 8.50484e-20 0 4.09625e-12 0 3.55136e-28
170 2 0.001 -0.0175 0 -0.0353859 8.50484e-20 0 -5.64294e-12 0 6.79952e-28
319 3 0.001 -0.0125 0 -0.0360235 -8.50484e-20 0 4.09625e-12 0 3.55136e-28
320 3 0.001 -0.0125 0 -0.0353859 -8.50484e-20 0 -5.64294e-12 0 6.79952e-28
469 4 0.001 -0.00750001 0 -0.0360235 -8.50484e-20 0 4.09625e-12 0 3.55136e-28
470 4 0.001 -0.00750001 0 -0.0353859 -8.50484e-20 0 -5.64294e-12 0 6.79952e-28
619 5 0.001 -0.00250001 0 -0.0360235 -8.50484e-20 0 4.09625e-12 0 3.55136e-28
620 5 0.001 -0.00250001 0 -0.0353859 -8.50484e-20 0 -5.64294e-12 0 6.79952e-28
769 6 0.001 0.00250001 0 -0.0360235 8.50484e-20 0 4.09625e-12 0 3.55136e-28
770 6 0.001 0.00250001 0 -0.0353859 8.50484e-20 0 -5.64294e-12 0 6.79952e-28
919 7 0.001 0.00749999 0 -0.0360235 -8.50484e-20 0 4.09625e-12 0 3.55136e-28
920 7 0.001 0.00749999 0 -0.0353859 -8.50484e-20 0 -5.64294e-12 0 6.79952e-28
1069 8 0.001 0.0125 0 -0.0360235 8.50484e-20 0 4.09625e-12 0 3.55136e-28
1070 8 0.001 0.0125 0 -0.0353859 8.50484e-20 0 -5.64294e-12 0 6.79952e-28
1219 9 0.001 0.0175 0 -0.0360235 -8.50484e-20 0 4.09625e-12 0 3.55136e-28
1220 9 0.001 0.0175 0 -0.0353859 -8.50484e-20 0 -5.64294e-12 0 6.79952e-28
1369 10 0.001 0.0225 0 -0.0360235 -8.50484e-20 0 4.09625e-12 0 3.55136e-28
1370 10 0.001 0.0225 0 -0.0353859 -8.50484e-20 0 -5.64294e-12 0 6.79952e-28
21 1 0.001 -0.0225 0 -0.0347483 8.50484e-20 0 3.72105e-12 0 4.60167e-28
22 1 0.001 -0.0225 0 -0.0341107 8.50484e-20 0 -1.83825e-12 0 9.12185e-29
23 1 0.001 -0.0225 0 -0.0334732 8.50484e-20 0 5.80807e-12 0 8.82592e-28
171 2 0.001 -0.0175 0 -0.0347483 8.50484e-20 0 3.72105e-12 0 4.60167e-28
172 2 0.001 -0.0175 0 -0.0341107 8.50484e-20 0 -1.83825e-12 0 9.12185e-29
173 2 0.001 -0.0175 0 -0.0334732 8.50484e-20 0 5.80807e-12 0 8.82592e-28
321 3 0.001 -0.0125 0 -0.0347483 -8.50484e-20 0 3.72105e-12 0 4.60167e-28
322 3 0.001 -0.0125 0 -0.0341107 -8.50484e-20 0 -1.83825e-12 0 9.12185e-29
323 3 0.001 -0.0125 0 -0.0334732 -8.50484e-20 0 5.80807e-12 0 8.82592e-28
471 4 0.001 -0.00750001 0 -0.0347483 -8.50484e-20 0 3.72105e-12 0 4.60167e-28
472 4 0.001 -0.00750001 0 -0.0341107 -8.50484e-20 0 -1.83825e-12 0 9.12185e-29
473 4 0.001 -0.00750001 0 -0.0334732 -8.50484e-20 0 5.80807e-12 0 8.82592e-28
621 5 0.001 -0.00250001 0 -0.0347483 -8.50484e-20 0 3.72105e-12 0 4.60167e-28
622 5 0.001 -0.00250001 0 -0.0341107 -8.50484e-20 0 -1.83825e-12 0 9.12185e-29
623 5 0.001 -0.00250001 0 -0.0334732 -8.50484e-20 0 5.80807e-12 0 8.82592e-28
771 6 0.001 0.00250001 0 -0.0347483 8.50484e-20 0 3.72105e-12 0 4.60167e-28
772 6 0.001 0.00250001 0 -0.0341107 8.50484e-20 0 -1.83825e-12 0 9.12185e-29
773 6 0.001 0.00250001 0 -0.0334732 8.50484e-20 0 5.80807e-12 0 8.82592e-28
921 7 0.001 0.00749999 0 -0.0347483 -8.50484e-20 0 3.72105e-12 0 4.60167e-28
922 7 0.001 0.00749999 0 -0.0341107 -8.50484e-20 0 -1.83825e-12 0 9.12185e-29
923 7 0.001 0.00749999 0 -0.0334732 -8.50484e-20 0 5.80807e-12 0 8.82592e-28
1071 8 0.001 0.0125 0 -0.0347483 8.50484e-20 0 3.72105e-12 0 4.60167e-28
1072 8 0.001 0.0125 0 -0.0341107 8.50484e-20 0 -1.83825e-12 0 9.12185e-29
1073 8 0.001 0.0125 0 -0.0334732 8.50484e-20 0 5.80807e-12 0 8.82592e-28
1221 9 0.001 0.0175 0 -0.0347483 -8.50484e-20 0 3.72105e-12 0 4.60167e-28
1222 9 0.001 0.0175 0 -0.0341107 -8.50484e-20 0 -1.83825e-12 0 9.12185e-29
1223 9 0.001 0.0175 0 -0.0334732 -8.50484e-20 0 5.80807e-12 0 8.82592e-28
1371 10 0.001 0.0225 0 -0.0347483 -8.50484e-20 0 3.72105e-12 0 4.60167e-28
1372 10 0.001 0.0225 0 -0.0341107 -8.50484e-20 0 -1.83825e-12 0 9.12185e-29
1373 10 0.001 0.0225 0 -0.0334732 -8.50484e-20 0 5.80807e-12 0 8.82592e-28
24 1 0.001 -0.0225 0 -0.0328356 8.50484e-20 0 -8.73435e-12 0 1.58338e-27
25 1 0.001 -0.0225 0 -0.032198 8.50484e-20 0 6.60288e-12 0 9.95856e-28
174 2 0.001 -0.0175 0 -0.0328356 8.50484e-20 0 -8.73435e-12 0 1.58338e-27
175 2 0.001 -0.0175 0 -0.032198 8.50484e-20 0 6.60288e-12 0 9.95856e-28
324 3 0.001 -0.0125 0 -0.0328356 -8.50484e-20 0 -8.73435e-12 0 1.58338e-27
325 3 0.001 -0.0125 0 -0.032198 -8.50484e-20 0 6.60288e-12 0 9.95856e-28
474 4 0.001 -0.00750001 0 -0.0328356 -8.50484e-20 0 -8.73435e-12 0 1.58338e-27
475 4 0.001 -0.00750001 0 -0.032198 -8.50484e-20 0 6.60288e-12 0 9.95856e-28
624 5 0.001 -0.00250001 0 -0.0328356 -8.50484e-20 0 -8.73435e-12 0 1.58338e-27
625 5 0.001 -0.00250001 0 -0.032198 -8.50484e-20 0 6.60288e-12 0 9.95856e-28
774 6 0.001 0.00250001 0 -0.0328356 8.50484e-20 0 -8.73435e-12 0 1.58338e-27
775 6 0.001 0.00250001 0 -0.032198 8.50484e-20 0 6.60288e-12 0 9.95856e-28
924 7 0.001 0.00749999 0 -0.0328356 -8.50484e-20 0 -8.73435e-12 0 1.58338e-27
925 7 0.001 0.00749999 0 -0.032198 -8.50484e-20 0 6.60288e-12 0 9.95856e-28
1074 8 0.001 0.0125 0 -0.0328356 8.50484e-20 0 -8.73435e-12 0 1.58338e-27
1075 8 0.001 0.0125 0 -0.032198 8.50484e-20 0 6.60288e-12 0 9.95856e-28
1224 9 0.001 0.0175 0 -0.0328356 -8.50484e-20 0 -8.73435e-12 0 1.58338e-27
1225 9 0.001 0.0175 0 -0.032198 -8.50484e-20 0 6.60288e-12 0 9.95856e-28
1374 10 0.001 0.0225 0 -0.0328356 -8.50484e-20 0 -8.73435e-12 0 1.58338e-27
1375 10 0.001 0.0225 0 -0.032198 -8.50484e-20 0 6.60288e-12 0 9.95856e-28
26 1 0.001 -0.0225 0 -0.0315604 8.50484e-20 0 -2.94715e-12 0 2.30881e-28
27 1 0.001 -0.0225 0 -0.0309228 8.50484e-20 0 -5.62241e-13 0 8.52999e-29
176 2 0.001 -0.0175 0 -0.0315604 8.50484e-20 0 -2.94715e-12 0 2.30881e-28
177 2 0.001 -0.0175 0 -0.0309228 8.50484e-20 0 -5.62241e-13 0 8.52999e-29
326 3 0.001 -0.0125 0 -0.0315604 -8.50484e-20 0 -2.94715e-12 0 2.30881e-28
327 3 0.001 -0.0125 0 -0.0309228 -8.50484e-20 0 -5.62241e-13 0 8.52999e-29
476 4 0.001 -0.00750001 0 -0.0315604 -8.50484e-20 0 -2.94715e-12 0 2.30881e-28
477 4 0.001 -0.00750001 0 -0.0309228 -8.50484e-20 0 -5.62241e-13 0 8.52999e-29
626 5 0.001 -0.00250001 0 -0.0315604 -8.50484e-20 0 -2.94715e-12 0 2.30881e-28
627 5 0.001 -0.00250001 0 -0.0309228 -8.50484e-20 0 -5.62241e-13 0 8.52999e-29
776 6 0.001 0.00250001 0 -0.0315604 8.50484e-20 0 -2.94715e-12 0 2.30881e-28
777 6 0.001 0.00250001 0 -0.0309228 8.50484e-20 0 -5.62241e-13 0 8.52999e-29
926 7 0.001 0.00749999 0 -0.0315604 -8.50484e-20 0 -2.94715e-12 0 2.30881e-28
927 7 0.001 0.00749999 0 -0.0309228 -8.50484e-20 0 -5.62241e-13 0 8.52999e-29
1076 8 0.001 0.0125 0 -0.0315604 8.50484e-20 0 -2.94715e-12 0 2.30881e-28
1077 8 0.001 0.0125 0 -0.0309228 8.50484e-20 0 -5.62241e-13 0 8.52999e-29
1226 9 0.001 0.0175 0 -0.0315604 -8.50484e-20 0 -2.94715e-12 0 2.30881e-28
1227 9 0.001 0.0175 0 -0.0309228 -8.50484e-20 0 -5.62241e-13 0 8.52999e-29
1376 10 0.001 0.0225 0 -0.0315604 -8.50484e-20 0 -2.94715e-12 0 2.30881e-28
1377 10 0.001 0.0225 0 -0.0309228 -8.50484e-20 0 -5.62241e-13 0 8.52999e-29
28 1 0.001 -0.0225 0 -0.0302852 8.50484e-20 0 2.19399e-12 0 1.01999e-28
29 1 0.001 -0.0225 0 -0.0296477 8.50484e-20 0 -4.36859e-12 0 5.24569e-28
30 1 0.001 -0.0225 0 -0.0290101 8.50484e-20 0 8.58867e-12 0 1.59291e-27
178 2 0.001 -0.0175 0 -0.0302852 8.50484e-20 0 2.19399e-12 0 1.01999e-28
179 2 0.001 -0.0175 0 -0.0296477 8.50484e-20 0 -4.36859e-12 0 5.24569e-28
180 2 0.001 -0.0175 0 -0.0290101 8.50484e-20 0 8.58867e-12 0 1.59291e-27
328 3 0.001 -0.0125 0 -0.0302852 -8.50484e-20 0 2.19399e-12 0 1.01999e-28
329 3 0.001 -0.0125 0 -0.0296477 -8.50484e-20 0 -4.36859e-12 0 5.24569e-28
330 3 0.001 -0.0125 0 -0.0290101 -8.50484e-20 0 8.58867e-12 0 1.59291e-27
478 4 0.001 -0.00750001 0 -0.0302852 -8.50484e-20 0 2.19399e-12 0 1.01999e-28
479 4 0.001 -0.00750001 0 -0.0296477 -8.50484e-20 0 -4.36859e-12 0 5.24569e-28
480 4 0.001 -0.00750001 0 -0.0290101 -8.50484e-20 0 8.58867e-12 0 1.59291e-27
628 5 0.001 -0.00250001 0 -0.0302852 -8.50484e-20 0 2.19399e-12 0 1.01999e-28
629 5 0.001 -0.00250001 0 -0.0296477 -8.50484e-20 0 -4.36859e-12 0 5.24569e-28
630 5 0.001 -0.00250001 0 -0.0290101 -8.50484e-20 0 8.58867e-12 0 1.59291e-27
778 6 0.001 0.00250001 0 -0.0302852 8.50484e-20 0 2.19399e-12 0 1.01999e-28
779 6 0.001 0.00250001 0 -0.0296477 8.50484e-20 0 -4.36859e-12 0 5.24569e-28
780 6 0.001 0.00250001 0 -0.0290101 8.50484e-20 0 8.58867e-12 0 1.59291e-27
928 7 0.001 0.00749999 0 -0.0302852 -8.50484e-20 0 2.19399e-12 0 1.01999e-28
929 7 0.001 0.00749999 0 -0.0296477 -8.50484e-20 0 -4.36859e-12 0 5.24569e-28
930 7 0.001 0.00749999 0 -0.0290101 -8.50484e-20 0 8.58867e-12 0 1.59291e-27
1078 8 0.001 0.0125 0 -0.0302852 8.50484e-20 0 2.19399e-12 0 1.01999e-28
1079 8 0.001 0.0125 0 -0.0296477 8.50484e-20 0 -4.36859e-12 0 5.24569e-28
1080 8 0.001 0.0125 0 -0.0290101 8.50484e-20 0 8.58867e-12 0 1.59291e-27
1228 9 0.001 0.0175 0 -0.0302852 -8.50484e-20 0 2.19399e-12 0 1.01999e-28
1229 9 0.001 0.0175 0 -0.0296477 -8.50484e-20 0 -4.36859e-12 0 5.24569e-28
1230 9 0.001 0.0175 0 -0.0290101 -8.50484e-20 0 8.58867e-12 0 1.59291e-27
1378 10 0.001 0.0225 0 -0.0302852 -8.50484e-20 0 2.19399e-12 0 1.01999e-28
1379 10 0.001 0.0225 0 -0.0296477 -8.50484e-20 0 -4.36859e-12 0 5.24569e-28
1380 10 0.001 0.0225 0 -0.0290101 -8.50484e-20 0 8.58867e-12 0 1.59291e-27
31 1 0.001 -0.0225 0 -0.0283725 8.50484e-20 0 -1.01548e-11 0 2.14096e-27
32 1 0.001 -0.0225 0 -0.0277349 8.50484e-20 0 5.80805e-12 0 1.06351e-27
181 2 0.001 -0.0175 0 -0.0283725 8.50484e-20 0 -1.01548e-11 0 2.14096e-27
182 2 0.001 -0.0175 0 -0.0277349 8.50484e-20 0 5.80805e-12 0 1.06351e-27
331 3 0.001 -0.0125 0 -0.0283725 -8.50484e-20 0 -1.01548e-11 0 2.14096e-27
332 3 0.001 -0.0125 0 -0.0277349 -8.50484e-20 0 5.80805e-12 0 1.06351e-27
481 4 0.001 -0.00750001 0 -0.0283725 -8.50484e-20 0 -1.01548e-11 0 2.14096e-27
482 4 0.001 -0.00750001 0 -0.0277349 -8.50484e-20 0 5.80805e-12 0 1.06351e-27
631 5 0.001 -0.00250001 0 -0.0283725 -8.50484e-20 0 -1.01548e-11 0 2.14096e-27
632 5 0.001 -0.00250001 0 -0.0277349 -8.50484e-20 0 5.80805e-12 0 1.06351e-27
781 6 0.001 0.00250001 0 -0.0283725 8.50484e-20 0 -1.01548e-11 0 2.14096e-27
782 6 0.001 0.00250001 0 -0.0277349 8.50484e-20 0 5.80805e-12 0 1.06351e-27
931 7 0.001 0.00749999 0 -0.0283725 -8.50484e-20 0 -1.01548e-11 0 2.14096e-27
932 7 0.001 0.00749999 0 -0.0277349 -8.50484e-20 0 5.80805e-12 0 1.06351e-27
1081 8 0.001 0.0125 0 -0.0283725 8.50484e-20 0 -1.01548e-11 0 2.14096e-27
1082 8 0.001 0.0125 0 -0.0277349 8.50484e-20 0 5.80805e-12 0 1.06351e-27
1231 9 0.001 0.0175 0 -0.0283725 -8.50484e-20 0 -1.01548e-11 0 2.14096e-27
1232 9 0.001 0.0175 0 -0.0277349 -8.50484e-20 0 5.80805e-12 0 1.06351e-27
1381 10 0.001 0.0225 0 -0.0283725 -8.50484e-20 0 -1.01548e-11 0 2.14096e-27
1382 10 0.001 0.0225 0 -0.0277349 -8.50484e-20 0 5.80805e-12 0 1.06351e-27
33 1 0.001 -0.0225 0 -0.0270973 8.50484e-20 0 3.76248e-12 0 8.95936e-28
34 1 0.001 -0.0225 0 -0.0264597 8.50484e-20 0 -7.94158e-12 0 1.33884e-27
35 1 0.001 -0.0225 0 -0.0258221 8.50484e-20 0 6.93747e-12 0 9.99723e-28
183 2 0.001 -0.0175 0 -0.0270973 8.50484e-20 0 3.76248e-12 0 8.95936e-28
184 2 0.001 -0.0175 0 -0.0264597 8.50484e-20 0 -7.94158e-12 0 1.33884e-27
185 2 0.001 -0.0175 0 -0.0258221 8.50484e-20 0 6.93747e-12 0 9.99723e-28
333 3 0.001 -0.0125 0 -0.0270973 -8.50484e-20 0 3.76248e-12 0 8.95936e-28
334 3 0.001 -0.0125 0 -0.0264597 -8.50484e-20 0 -7.94158e-12 0 1.33884e-27
335 3 0.001 -0.0125 0 -0.0258221 -8.50484e-20 0 6.93747e-12 0 9.99723e-28
483 4 0.001 -0.00750001 0 -0.0270973 -8.50484e-20 0 3.76248e-12 0 8.95936e-28
484 4 0.001 -0.00750001 0 -0.0264597 -8.50484e-20 0 -7.94158e-12 0 1.33884e-27
485 4 0.001 -0.00750001 0 -0.0258221 -8.50484e-20 0 6.93747e-12 0 9.99723e-28
633 5 0.001 -0.00250001 0 -0.0270973 -8.50484e-20 0 3.76248e-12 0 8.95936e-28
634 5 0.001 -0.00250001 0 -0.0264597 -8.50484e-20 0 -7.94158e-12 0 1.33884e-27
635 5 0.001 -0.00250001 0 -0.0258221 -8.50484e-20 0 6.93747e-12 0 9.99723e-28
783 6 0.001 0.00250001 0 -0.0270973 8.50484e-20 0 3.76248e-12 0 8.95936e-28
784 6 0.001 0.00250001 0 -0.0264597 8.50484e-20 0 -7.94158e-12 0 1.33884e-27
785 6 0.001 0.00250001 0 -0.0258221 8.50484e-20 0 6.93747e-12 0 9.99723e-28
933 7 0.001 0.00749999 0 -0.0270973 -8.50484e-20 0 3.76248e-12 0 8.95936e-28
934 7 0.001 0.00749999 0 -0.0264597 -8.50484e-20 0 -7.94158e-12 0 1.33884e-27
935 7 0.001 0.00749999 0 -0.0258221 -8.50484e-20 0 6.93747e-12 0 9.99723e-28
1083 8 0.001 0.0125 0 -0.0270973 8.50484e-20 0 3.76248e-12 0 8.95936e-28
1084 8 0.001 0.0125 0 -0.0264597 8.50484e-20 0 -7.94158e-12 0 1.33884e-27
1085 8 0.001 0.0125 0 -0.0258221 8.50484e-20 0 6.93747e-12 0 9.99723e-28
1233 9 0.001 0.0175 0 -0.0270973 -8.50484e-20 0 3.76248e-12 0 8.95936e-28
1234 9 0.001 0.0175 0 -0.0264597 -8.50484e-20 0 -7.94158e-12 0 1.33884e-27
1235 9 0.001 0.0175 0 -0.0258221 -8.50484e-20 0 6.93747e-12 0 9.99723e-28
1383 10 0.001 0.0225 0 -0.0270973 -8.50484e-20 0 3.76248e-12 0 8.95936e-28
1384 10 0.001 0.0225 0 -0.0264597 -8.50484e-20 0 -7.94158e-12 0 1.33884e-27
1385 10 0.001 0.0225 0 -0.0258221 -8.50484e-20 0 6.93747e-12 0 9.99723e-28
36 1 0.001 -0.0225 0 -0.0251846 8.50484e-20 0 -4.38714e-12 0 5.57083e-28
37 1 0.001 -0.0225 0 -0.024547 8.50484e-20 0 -1.60882e-12 0 2.7197e-28
186 2 0.001 -0.0175 0 -0.0251846 8.50484e-20 0 -4.38714e-12 0 5.57083e-28
187 2 0.001 -0.0175 0 -0.024547 8.50484e-20 0 -1.60882e-12 0 2.7197e-28
336 3 0.001 -0.0125 0 -0.0251846 -8.50484e-20 0 -4.38714e-12 0 5.57083e-28
337 3 0.001 -0.0125 0 -0.024547 -8.50484e-20 0 -1.60882e-12 0 2.7197e-28
486 4 0.001 -0.00750001 0 -0.0251846 -8.50484e-20 0 -4.38714e-12 0 5.57083e-28
487 4 0.001 -0.00750001 0 -0.024547 -8.50484e-20 0 -1.60882e-12 0 2.7197e-28
636 5 0.001 -0.00250001 0 -0.0251846 -8.50484e-20 0 -4.38714e-12 0 5.57083e-28
637 5 0.001 -0.00250001 0 -0.024547 -8.50484e-20 0 -1.60882e-12 0 2.7197e-28
786 6 0.001 0.00250001 0 -0.0251846 8.50484e-20 0 -4.38714e-12 0 5.57083e-28
787 6 0.001 0.00250001 0 -0.024547 8.50484e-20 0 -1.60882e-12 0 2.7197e-28
936 7 0.001 0.00749999 0 -0.0251846 -8.50484e-20 0 -4.38714e-12 0 5.57083e-28
937 7 0.001 0.00749999 0 -0.024547 -8.50484e-20 0 -1.60882e-12 0 2.7197e-28
1086 8 0.001 0.0125 0 -0.0251846 8.50484e-20 0 -4.38714e-12 0 5.57083e-28
1087 8 0.001 0.0125 0 -0.024547 8.50484e-20 0 -1.60882e-12 0 2.7197e-28
1236 9 0.001 0.0175 0 -0.0251846 -8.50484e-20 0 -4.38714e-12 0 5.57083e-28
1237 9 0.001 0.0175 0 -0.024547 -8.50484e-20 0 -1.60882e-12 0 2.7197e-28
1386 10 0.001 0.0225 0 -0.0251846 -8.50484e-20 0 -4.38714e-12 0 5.57083e-28
1387 10 0.001 0.0225 0 -0.024547 -8.50484e-20 0 -1.60882e-12 0 2.7197e-28
38 1 0.001 -0.0225 0 -0.0239094 8.50484e-20 0 6.37224e-12 0 8.91037e-28
39 1 0.001 -0.0225 0 -0.0232718 8.50484e-20 0 -1.07617e-11 0 2.57402e-27
188 2 0.001 -0.0175 0 -0.0239094 8.50484e-20 0 6.37224e-12 0 8.91037e-28
189 2 0.001 -0.0175 0 -0.0232718 8.50484e-20 0 -1.07617e-11 0 2.57402e-27
338 3 0.001 -0.0125 0 -0.0239094 -8.50484e-20 0 6.37224e-12 0 8.91037e-28
339 3 0.001 -0.0125 0 -0.0232718 -8.50484e-20 0 -1.07617e-11 0 2.57402e-27
488 4 0.001 -0.00750001 0 -0.0239094 -8.50484e-20 0 6.37224e-12 0 8.91037e-28
489 4 0.001 -0.00750001 0 -0.0232718 -8.50484e-20 0 -1.07617e-11 0 2.57402e-27
638 5 0.001 -0.00250001 0 -0.0239094 -8.50484e-20 0 6.37224e-12 0 8.91037e-28
639 5 0.001 -0.00250001 0 -0.0232718 -8.50484e-20 0 -1.07617e-11 0 2.57402e-27
788 6 0.001 0.00250001 0 -0.0239094 8.50484e-20 0 6.37224e-12 0 8.91037e-28
789 6 0.001 0.00250001 0 -0.0232718 8.50484e-20 0 -1.07617e-11 0 2.57402e-27
938 7 0.001 0.00749999 0 -0.0239094 -8.50484e-20 0 6.37224e-12 0 8.91037e-28
939 7 0.001 0.00749999 0 -0.0232718 -8.50484e-20 0 -1.07617e-11 0 2.57402e-27
1088 8 0.001 0.0125 0 -0.0239094 8.50484e-20 0 6.37224e-12 0 8.91037e-28
1089 8 0.001 0.0125 0 -0.0232718 8.50484e-20 0 -1.07617e-11 0 2.57402e-27
1238 9 0.001 0.0175 0 -0.0239094 -8.50484e-20 0 6.37224e-12 0 8.91037e-28
1239 9 0.001 0.0175 0 -0.0232718 -8.50484e-20 0 -1.07617e-11 0 2.57402e-27
1388 10 0.001 0.0225 0 -0.0239094 -8.50484e-20 0 6.37224e-12 0 8.91037e-28
1389 10 0.001 0.0225 0 -0.0232718 -8.50484e-20 0 -1.07617e-11 0 2.57402e-27
40 1 0.001 -0.0225 0 -0.0226342 8.50484e-20 0 9.09023e-12 0 2.14222e-27
41 1 0.001 -0.0225 0 -0.0219966 8.50484e-20 0 -1.79694e-12 0 2.24471e-28
42 1 0.001 -0.0225 0 -0.0213591 8.50484e-20 0 5.63494e-13 0 5.46499e-29
190 2 0.001 -0.0175 0 -0.0226342 8.50484e-20 0 9.09023e-12 0 2.14222e-27
191 2 0.001 -0.0175 0 -0.0219966 8.50484e-20 0 -1.79694e-12 0 2.24471e-28