ITEM: TIMESTEP
2600000
ITEM: NUMBER OF ATOMS
1500
ITEM: BOX BOUNDS ff ff ff
-2.5000000000000001e-02 2.5000000000000001e-02
-5.0000000000000001e-03 5.0000000000000001e-03
-5.0000000000000003e-02 5.0000000000000003e-02
ITEM: ATOMS id type radius x y z fx fy fz c_bendingE c_stretchingE
1 1 0.001 -0.0225 0 -0.04256 -0.178713 0 -3.8e-09 1.07873e-06 1.59293e-34
151 2 0.001 -0.0175 0 -0.04256 -0.172624 0 -3.8e-09 1.00642e-06 1.59293e-34
301 3 0.001 -0.0125 0 -0.04256 -0.154699 0 -3.8e-09 8.08146e-07 1.59293e-34
451 4 0.001 -0.0075 0 -0.04256 -0.123374 0 -3.8e-09 5.13885e-07 1.59293e-34
601 5 0.001 -0.0025 0 -0.04256 -0.0831035 0 -3.8e-09 2.33112e-07 1.59293e-34
751 6 0.001 0.0025 0 -0.04256 -0.0485804 0 -3.8e-09 7.96522e-08 1.59293e-34
901 7 0.001 0.0075 0 -0.04256 -0.0200746 0 -3.8e-09 1.36003e-08 1.59293e-34
1051 8 0.001 0.0125 0 -0.04256 0.00214632 0 -3.8e-09 1.55467e-10 1.59293e-34
1201 9 0.001 0.0175 0 -0.04256 0.0271766 0 -3.8e-09 2.49258e-08 1.59293e-34
1351 10 0.001 0.0225 0 -0.04256 0.052327 0 -3.8e-09 9.24128e-08 1.59293e-34
2 1 0.001 -0.0225 0 -0.0419224 0.178452 0 -0.0169068 2.14906e-06 1.18475e-08
3 1 0.001 -0.022464 0 -0.0412887 -1.23536e-09 0 5.64527e-10 3.19967e-06 2.36018e-08
152 2 0.001 -0.0175 0 -0.0419224 0.1728 0 -0.0181654 1.99929e-06 1.36417e-08
153 2 0.001 -0.0174652 0 -0.0412888 9.32406e-10 0 1.04505e-09 2.96744e-06 2.71473e-08
302 3 0.001 -0.0125 0 -0.0419224 0.154586 0 -0.0213134 1.60661e-06 1.88204e-08
303 3 0.001 -0.0124688 0 -0.0412891 -8.12334e-10 0 5.88179e-10 2.38482e-06 3.75155e-08
452 4 0.001 -0.0075 0 -0.0419224 0.125448 0 -0.0177343 1.00507e-06 1.29156e-08
453 4 0.001 -0.00747513 0 -0.0412882 5.38948e-10 0 6.60901e-10 1.46875e-06 2.56575e-08
602 5 0.001 -0.0025 0 -0.0419224 0.086627 0 -0.00995779 4.45522e-07 4.03661e-09
603 5 0.001 -0.00248322 0 -0.0412867 6.61354e-10 0 -2.14922e-10 6.36935e-07 7.99299e-09
752 6 0.001 0.0025 0 -0.0419224 0.051621 0 -0.00927051 1.49231e-07 3.53055e-09
753 6 0.001 0.00250981 0 -0.0412864 8.32747e-10 0 5.15228e-10 2.0904e-07 7.02531e-09
902 7 0.001 0.0075 0 -0.0419224 0.02274 0 -0.00839004 2.37729e-08 2.91002e-09
903 7 0.001 0.00750406 0 -0.0412862 6.34705e-10 0 -5.54086e-10 3.09693e-08 5.80953e-09
1052 8 0.001 0.0125 0 -0.0419224 0.000364059 0 -0.00858489 8.83694e-10 3.06047e-09
1053 8 0.001 0.0124996 0 -0.0412863 7.70133e-10 0 -7.9701e-11 2.60008e-09 6.12357e-09
1202 9 0.001 0.0175 0 -0.0419224 -0.025176 0 -0.00759002 5.35202e-08 2.402e-09
1203 9 0.001 0.0174945 0 -0.0412861 6.10963e-11 0 -2.05027e-10 8.58878e-08 4.8151e-09
1352 10 0.001 0.0225 0 -0.0419224 -0.0510159 0 -0.00666912 1.89106e-07 1.85779e-09
1353 10 0.001 0.0224894 0 -0.041286 1.46496e-09 0 2.17493e-10 2.89756e-07 3.72638e-09
4 1 0.001 -0.0223922 0 -0.0406579 -3.63478e-09 0 1.20295e-09 3.14099e-06 2.33429e-08
5 1 0.001 -0.0222851 0 -0.0400322 -6.3649e-09 0 2.13098e-09 3.05004e-06 2.29445e-08
6 1 0.001 -0.0221438 0 -0.0394133 -8.71468e-09 0 3.1501e-09 2.92903e-06 2.24196e-08
154 2 0.001 -0.017396 0 -0.040658 2.2351e-09 0 1.95928e-09 2.89391e-06 2.67993e-08
155 2 0.001 -0.0172929 0 -0.0400318 3.8004e-09 0 2.87104e-09 2.78905e-06 2.63068e-08
156 2 0.001 -0.0171569 0 -0.0394119 5.43504e-09 0 3.65016e-09 2.65552e-06 2.56864e-08
304 3 0.001 -0.0124068 0 -0.0406581 -2.28091e-09 0 1.26406e-09 2.32465e-06 3.71797e-08
305 3 0.001 -0.0123144 0 -0.0400308 -4.16586e-09 0 1.96951e-09 2.2348e-06 3.66812e-08
306 3 0.001 -0.0121925 0 -0.0394085 -6.14888e-09 0 2.66934e-09 2.11787e-06 3.60374e-08
454 4 0.001 -0.00742599 0 -0.0406555 1.34353e-09 0 1.35998e-09 1.38686e-06 2.52808e-08
455 4 0.001 -0.00735333 0 -0.040025 1.89713e-09 0 1.96289e-09 1.29258e-06 2.48504e-08
456 4 0.001 -0.00725805 0 -0.0393974 2.29772e-09 0 2.48899e-09 1.18809e-06 2.43778e-08
604 5 0.001 -0.00245042 0 -0.0406516 1.64396e-09 0 -4.05262e-10 5.74219e-07 7.83273e-09
605 5 0.001 -0.00240244 0 -0.0400174 2.64844e-09 0 -5.95681e-10 5.11435e-07 7.67393e-09
606 5 0.001 -0.00234016 0 -0.0393845 3.65655e-09 0 -7.64637e-10 4.49387e-07 7.51859e-09
754 6 0.001 0.0025288 0 -0.0406507 1.81172e-09 0 1.09946e-09 1.79846e-07 6.95521e-09
755 6 0.001 0.00255628 0 -0.0400152 2.65357e-09 0 1.61615e-09 1.51906e-07 6.88844e-09
756 6 0.001 0.00259156 0 -0.0393801 3.06531e-09 0 2.12015e-09 1.25546e-07 6.82574e-09
904 7 0.001 0.00751162 0 -0.0406501 1.74421e-09 0 -1.03033e-09 2.20721e-08 5.79007e-09
905 7 0.001 0.00752213 0 -0.040014 3.12862e-09 0 -1.5691e-09 1.46185e-08 5.7738e-09
906 7 0.001 0.00753503 0 -0.0393779 4.69381e-09 0 -2.13253e-09 8.68764e-09 5.76086e-09
1054 8 0.001 0.0124982 0 -0.0406501 2.02473e-09 0 -1.6376e-10 5.5538e-09 6.1302e-09
1055 8 0.001 0.0124954 0 -0.040014 3.44644e-09 0 -2.41601e-10 9.71704e-09 6.13956e-09
1056 8 0.001 0.0124906 0 -0.0393778 4.86483e-09 0 -3.20531e-10 1.50444e-08 6.15154e-09
1204 9 0.001 0.0174831 0 -0.0406499 2.39448e-10 0 -4.24188e-10 9.71706e-08 4.83759e-09
1206 9 0.001 0.0174413 0 -0.039378 1.1e-09 0 -8.54996e-10 1.20233e-07 4.88372e-09
1205 9 0.001 0.0174655 0 -0.0400138 5.55888e-10 0 -6.4666e-10 1.08656e-07 4.86053e-09
1354 10 0.001 0.022468 0 -0.0406499 3.95541e-09 0 5.04263e-10 3.01593e-07 3.74713e-09
1355 10 0.001 0.0224356 0 -0.0400143 6.93298e-09 0 8.79866e-10 3.12361e-07 3.76605e-09
1356 10 0.001 0.022392 0 -0.0393793 1.00433e-08 0 1.28122e-09 3.21965e-07 3.78297e-09
7 1 0.001 -0.0219691 0 -0.038803 -1.08629e-08 0 4.13486e-09 2.78081e-06 2.17851e-08
8 1 0.001 -0.0217625 0 -0.0382026 -1.24123e-08 0 5.07892e-09 2.60887e-06 2.10605e-08
157 2 0.001 -0.0169892 0 -0.0387998 7.1799e-09 0 4.17925e-09 2.49666e-06 2.49579e-08
158 2 0.001 -0.0167911 0 -0.0381968 8.5915e-09 0 4.79302e-09 2.31636e-06 2.41439e-08
307 3 0.001 -0.012042 0 -0.0387925 -7.88433e-09 0 3.41167e-09 1.97719e-06 3.52705e-08
308 3 0.001 -0.0118643 0 -0.0381837 -9.30065e-09 0 4.19403e-09 1.81671e-06 3.44057e-08
457 4 0.001 -0.00714122 0 -0.0387735 2.47989e-09 0 3.04553e-09 1.07579e-06 2.38749e-08
458 4 0.001 -0.00700401 0 -0.0381537 2.16827e-09 0 3.81348e-09 9.5823e-07 2.33541e-08
607 5 0.001 -0.00226452 0 -0.038753 4.37917e-09 0 -9.67351e-10 3.88855e-07 7.36858e-09
608 5 0.001 -0.00217646 0 -0.0381231 4.59098e-09 0 -1.27675e-09 3.30592e-07 7.22562e-09
757 6 0.001 0.00263393 0 -0.0387454 3.03094e-09 0 2.68557e-09 1.01074e-07 6.76779e-09
758 6 0.001 0.00268264 0 -0.0381112 2.59365e-09 0 3.22589e-09 7.8774e-08 6.7152e-09
907 7 0.001 0.00754974 0 -0.0387419 6.17397e-09 0 -2.70271e-09 4.34209e-09 5.7514e-09
908 7 0.001 0.00756569 0 -0.0381059 7.44422e-09 0 -3.20865e-09 1.6278e-09 5.74549e-09
1057 8 0.001 0.0124834 0 -0.0387417 6.07135e-09 0 -3.91602e-10 2.14778e-08 6.16604e-09
1058 8 0.001 0.0124733 0 -0.0381056 6.98939e-09 0 -4.34662e-10 2.89469e-08 6.18288e-09
1207 9 0.001 0.0174101 0 -0.0387424 1.87524e-09 0 -1.05624e-09 1.31786e-07 4.90691e-09
1208 9 0.001 0.0173716 0 -0.0381073 2.86956e-09 0 -1.21745e-09 1.43202e-07 4.92988e-09
1357 10 0.001 0.022337 0 -0.0387452 1.28925e-08 0 1.70063e-09 3.30319e-07 3.79771e-09
1358 10 0.001 0.0222705 0 -0.0381123 1.52246e-08 0 2.14907e-09 3.37349e-07 3.81014e-09
9 1 0.001 -0.0215255 0 -0.0376135 -1.31972e-08 0 5.83005e-09 2.41715e-06 2.0267e-08
10 1 0.001 -0.0212598 0 -0.0370367 -1.31258e-08 0 6.20914e-09 2.20994e-06 1.94266e-08
11 1 0.001 -0.0209674 0 -0.036473 -1.20303e-08 0 6.14793e-09 1.99175e-06 1.85609e-08
159 2 0.001 -0.0165642 0 -0.0376039 9.25976e-09 0 5.45626e-09 2.11897e-06 2.32682e-08
160 2 0.001 -0.0163103 0 -0.0370221 9.49869e-09 0 6.14826e-09 1.90913e-06 2.2355e-08
161 2 0.001 -0.0160312 0 -0.0364518 9.5099e-09 0 7.0402e-09 1.69166e-06 2.14279e-08
309 3 0.001 -0.0116608 0 -0.037583 -1.03124e-08 0 4.71707e-09 1.64089e-06 3.34706e-08
310 3 0.001 -0.0114332 0 -0.036991 -1.06127e-08 0 5.01071e-09 1.4545e-06 3.24934e-08
311 3 0.001 -0.0111831 0 -0.036408 -1.03458e-08 0 4.95289e-09 1.26252e-06 3.1502e-08
459 4 0.001 -0.00684769 0 -0.0375385 1.37087e-09 0 4.44153e-09 8.38025e-07 2.28276e-08
460 4 0.001 -0.00667366 0 -0.0369279 1.02349e-10 0 5.16813e-09 7.17819e-07 2.2307e-08
609 5 0.001 -0.00207701 0 -0.0374948 4.21401e-09 0 -1.60202e-09 2.75309e-07 7.09127e-09
610 5 0.001 -0.00196718 0 -0.0368683 3.37684e-09 0 -1.78119e-09 2.23676e-07 6.96693e-09
759 6 0.001 0.00273694 0 -0.0374774 1.93295e-09 0 3.76744e-09 5.89015e-08 6.6685e-09
760 6 0.001 0.00279605 0 -0.0368441 1.10587e-09 0 4.32105e-09 4.16845e-08 6.62817e-09
909 7 0.001 0.0075823 0 -0.0374699 8.25325e-09 0 -3.68719e-09 5.73397e-10 5.74319e-09
910 7 0.001 0.00759898 0 -0.0368339 8.6359e-09 0 -4.13815e-09 1.19002e-09 5.74453e-09
1059 8 0.001 0.0124598 0 -0.0374696 7.46299e-09 0 -4.2199e-10 3.73698e-08 6.20191e-09
1060 8 0.001 0.0124425 0 -0.0368337 7.42821e-09 0 -4.00625e-10 4.66543e-08 6.22291e-09
1209 9 0.001 0.0173255 0 -0.0374727 3.99962e-09 0 -1.35924e-09 1.54368e-07 4.9524e-09
1210 9 0.001 0.0172716 0 -0.0368387 5.1738e-09 0 -1.49236e-09 1.65174e-07 4.97424e-09
1359 10 0.001 0.0221923 0 -0.0374806 1.68492e-08 0 2.5295e-09 3.42993e-07 3.82013e-09
1360 10 0.001 0.0221026 0 -0.0368505 1.76174e-08 0 2.85295e-09 3.472e-07 3.82759e-09
12 1 0.001 -0.02065 0 -0.0359228 -1.00987e-08 0 5.65143e-09 1.76723e-06 1.76907e-08
13 1 0.001 -0.0203099 0 -0.0353864 -7.68654e-09 0 4.95838e-09 1.54097e-06 1.68349e-08
14 1 0.001 -0.0199489 0 -0.0348637 -4.98373e-09 0 3.76976e-09 1.31747e-06 1.60104e-08
162 2 0.001 -0.0157289 0 -0.0358935 9.34005e-09 0 8.17384e-09 1.4714e-06 2.0509e-08
163 2 0.001 -0.0154054 0 -0.035347 8.81842e-09 0 9.33872e-09 1.25312e-06 1.96182e-08
312 3 0.001 -0.0109126 0 -0.0358343 -9.62553e-09 0 4.54483e-09 1.06996e-06 3.05231e-08
313 3 0.001 -0.0106234 0 -0.0352696 -8.45992e-09 0 3.934e-09 8.81748e-07 2.95813e-08
461 4 0.001 -0.00648337 0 -0.0363223 -1.36037e-09 0 5.95296e-09 6.00208e-07 2.18035e-08
462 4 0.001 -0.00627833 0 -0.0357214 -2.83126e-09 0 6.76356e-09 4.87695e-07 2.13272e-08
463 4 0.001 -0.00606013 0 -0.0351251 -4.32075e-09 0 7.53931e-09 3.82633e-07 2.08872e-08
611 5 0.001 -0.00184805 0 -0.0362435 2.26834e-09 0 -1.85133e-09 1.76306e-07 6.85382e-09
612 5 0.001 -0.00172068 0 -0.0356203 1.01649e-09 0 -1.90304e-09 1.33758e-07 6.75301e-09
613 5 0.001 -0.00158617 0 -0.0349986 -3.58248e-10 0 -1.89024e-09 9.65263e-08 6.66542e-09
761 6 0.001 0.0028592 0 -0.0362111 3.35305e-11 0 4.798e-09 2.73192e-08 6.59461e-09
762 6 0.001 0.00292559 0 -0.0355785 -1.17174e-09 0 5.27874e-09 1.59684e-08 6.56815e-09
763 6 0.001 0.00299442 0 -0.0349461 -2.50785e-09 0 5.72639e-09 7.76067e-09 6.54905e-09
911 7 0.001 0.00761516 0 -0.0361979 8.54331e-09 0 -4.52959e-09 3.47119e-09 5.7495e-09
912 7 0.001 0.00763025 0 -0.0355619 8.08488e-09 0 -4.9099e-09 7.39285e-09 5.75804e-09
913 7 0.001 0.00764368 0 -0.0349258 7.20976e-09 0 -5.34786e-09 1.29136e-08 5.77007e-09
1061 8 0.001 0.0124208 0 -0.0361979 6.83638e-09 0 -3.89481e-10 5.66981e-08 6.24568e-09
1062 8 0.001 0.0123943 0 -0.0355623 5.68054e-09 0 -3.751e-10 6.73905e-08 6.26996e-09
1063 8 0.001 0.0123627 0 -0.034927 4.07744e-09 0 -3.91954e-10 7.86132e-08 6.2955e-09
1211 9 0.001 0.0172095 0 -0.0362054 6.29152e-09 0 -1.60902e-09 1.75511e-07 4.99519e-09
1212 9 0.001 0.017139 0 -0.035573 7.25185e-09 0 -1.74988e-09 1.85277e-07 5.01501e-09
1213 9 0.001 0.01706 0 -0.0349416 7.87979e-09 0 -1.9406e-09 1.94373e-07 5.03351e-09
1362 10 0.001 0.0218879 0 -0.0355959 1.66767e-08 0 3.04958e-09 3.51167e-07 3.83462e-09
1363 10 0.001 0.021763 0 -0.0349718 1.51104e-08 0 2.94483e-09 3.50891e-07 3.83413e-09
1361 10 0.001 0.0220011 0 -0.0362222 1.75427e-08 0 3.06043e-09 3.49933e-07 3.83244e-09
15 1 0.001 -0.0195693 0 -0.0343543 -2.3503e-09 0 2.41012e-09 1.10105e-06 1.52318e-08
16 1 0.001 -0.019173 0 -0.0338577 -1.92688e-10 0 1.24444e-09 8.95702e-07 1.45109e-08
17 1 0.001 -0.018762 0 -0.0333731 1.60394e-09 0 5.77823e-10 7.05132e-07 1.38576e-08
164 2 0.001 -0.0150628 0 -0.0348123 8.29949e-09 0 1.03684e-08 1.04141e-06 1.87732e-08
165 2 0.001 -0.0147032 0 -0.0342888 7.58075e-09 0 1.12826e-08 8.40599e-07 1.79889e-08
166 2 0.001 -0.0143286 0 -0.0337759 7.16267e-09 0 1.17911e-08 6.54648e-07 1.72775e-08
314 3 0.001 -0.0103176 0 -0.0347137 -7.07026e-09 0 3.30848e-09 7.02589e-07 2.86985e-08
315 3 0.001 -0.00999725 0 -0.0341659 -5.25889e-09 0 2.52542e-09 5.36869e-07 2.78938e-08
316 3 0.001 -0.00966437 0 -0.0336257 -3.26554e-09 0 1.56648e-09 3.88562e-07 2.71834e-08
464 4 0.001 -0.00583036 0 -0.0345332 -5.48065e-09 0 8.39396e-09 2.87188e-07 2.04915e-08
465 4 0.001 -0.00559067 0 -0.0339452 -6.21769e-09 0 8.87996e-09 2.03298e-07 2.01467e-08
466 4 0.001 -0.00534273 0 -0.0333606 -6.38034e-09 0 9.16214e-09 1.32645e-07 1.98587e-08
614 5 0.001 -0.00144563 0 -0.0343782 -1.61834e-09 0 -1.73946e-09 6.50397e-08 6.59178e-09
615 5 0.001 -0.00130017 0 -0.033759 -2.77052e-09 0 -1.56866e-09 3.96578e-08 6.53272e-09
764 6 0.001 0.00306488 0 -0.0343139 -3.87073e-09 0 6.1105e-09 2.78844e-09 6.53749e-09
765 6 0.001 0.00313616 0 -0.0336818 -5.07216e-09 0 6.45574e-09 1.10772e-09 6.53357e-09
914 7 0.001 0.00765488 0 -0.0342897 6.0308e-09 0 -5.75686e-09 1.99752e-08 5.78549e-09
915 7 0.001 0.00766327 0 -0.0336536 4.69197e-09 0 -6.11563e-09 2.85027e-08 5.80413e-09
1064 8 0.001 0.0123254 0 -0.0342919 2.11076e-09 0 -3.96652e-10 9.02416e-08 6.32201e-09
1065 8 0.001 0.0122821 0 -0.0336573 -3.42705e-11 0 -4.03602e-10 1.02147e-07 6.34922e-09
1214 9 0.001 0.0169722 0 -0.0343114 8.12517e-09 0 -2.13622e-09 2.02709e-07 5.0505e-09
1215 9 0.001 0.0168754 0 -0.0336826 7.89258e-09 0 -2.41571e-09 2.10201e-07 5.06579e-09
1364 10 0.001 0.0216264 0 -0.0343502 1.30266e-08 0 2.74091e-09 3.49108e-07 3.83096e-09
1365 10 0.001 0.0214782 0 -0.0337312 1.05798e-08 0 2.39538e-09 3.45834e-07 3.82515e-09
18 1 0.001 -0.0183383 0 -0.0328994 2.94942e-09 0 2.56407e-11 5.32648e-07 1.32793e-08
19 1 0.001 -0.0179039 0 -0.0324356 3.76064e-09 0 -4.15532e-10 3.81157e-07 1.27815e-08
20 1 0.001 -0.0174606 0 -0.0319801 4.08134e-09 0 -2.75366e-10 2.53138e-07 1.23682e-08
167 2 0.001 -0.013941 0 -0.0332726 7.26723e-09 0 1.16042e-08 4.87135e-07 1.66489e-08
168 2 0.001 -0.0135425 0 -0.0327779 8.11818e-09 0 1.06816e-08 3.41193e-07 1.61108e-08
169 2 0.001 -0.013135 0 -0.0322905 9.64685e-09 0 9.10904e-09 2.19484e-07 1.56688e-08
170 2 0.001 -0.0127205 0 -0.031809 1.19316e-08 0 6.4948e-09 1.24181e-07 1.5327e-08
317 3 0.001 -0.00932099 0 -0.033092 -1.44239e-09 0 4.98114e-10 2.61154e-07 2.65804e-08
318 3 0.001 -0.00896917 0 -0.0325639 3.14418e-10 0 -6.25811e-10 1.5759e-07 2.60953e-08
319 3 0.001 -0.00861092 0 -0.03204 1.59834e-09 0 -1.26345e-09 8.02303e-08 2.57358e-08
467 4 0.001 -0.00508819 0 -0.0327788 -6.00188e-09 0 9.07731e-09 7.66313e-08 1.96318e-08
468 4 0.001 -0.00482876 0 -0.0321991 -5.044e-09 0 8.5235e-09 3.63558e-08 1.94695e-08
616 5 0.001 -0.00115093 0 -0.0331406 -3.72882e-09 0 -1.42233e-09 2.06682e-08 6.48871e-09
617 5 0.001 -0.000999045 0 -0.0325229 -4.63722e-09 0 -1.19742e-09 8.28488e-09 6.46009e-09
618 5 0.001 -0.000845642 0 -0.0319056 -5.32258e-09 0 -1.09355e-09 2.64672e-09 6.44708e-09
766 6 0.001 0.00320744 0 -0.0330497 -6.17326e-09 0 6.6942e-09 2.73741e-09 6.53734e-09
767 6 0.001 0.00327792 0 -0.0324175 -6.91566e-09 0 6.85071e-09 7.65917e-09 6.54876e-09
768 6 0.001 0.00334678 0 -0.0317852 -7.39081e-09 0 6.94e-09 1.58176e-08 6.56772e-09
916 7 0.001 0.0076683 0 -0.0330174 3.36772e-09 0 -6.37046e-09 3.84058e-08 5.82581e-09
917 7 0.001 0.00766941 0 -0.0323812 2.26579e-09 0 -6.58837e-09 4.9579e-08 5.85032e-09
1066 8 0.001 0.0122324 0 -0.0330231 -2.13563e-09 0 -3.87617e-10 1.14195e-07 6.37681e-09
1067 8 0.001 0.012176 0 -0.0323895 -4.03541e-09 0 -3.27081e-10 1.26252e-07 6.40448e-09
1216 9 0.001 0.0167696 0 -0.0330551 7.17823e-09 0 -2.75701e-09 2.16772e-07 5.07922e-09
1217 9 0.001 0.0166545 0 -0.0324293 6.03748e-09 0 -3.15572e-09 2.22357e-07 5.09064e-09
1218 9 0.001 0.0165301 0 -0.0318053 4.56886e-09 0 -3.66731e-09 2.26898e-07 5.09995e-09
1366 10 0.001 0.0213186 0 -0.0331151 7.98328e-09 0 1.96172e-09 3.41097e-07 3.81675e-09
1367 10 0.001 0.0211477 0 -0.032502 5.39358e-09 0 1.49451e-09 3.34941e-07 3.80584e-09
1368 10 0.001 0.0209655 0 -0.0318922 3.06851e-09 0 1.0265e-09 3.27419e-07 3.79254e-09
21 1 0.001 -0.0170103 0 -0.0315317 4.31438e-09 0 -7.02017e-12 1.50634e-07 1.20422e-08
22 1 0.001 -0.0165546 0 -0.0310886 4.64582e-09 0 2.42585e-10 7.52472e-08 1.18052e-08
23 1 0.001 -0.0160953 0 -0.0306492 5.0947e-09 0 2.16054e-10 2.81353e-08 1.16583e-08
171 2 0.001 -0.0123009 0 -0.031332 1.44599e-08 0 3.58034e-09 5.69551e-08 1.50881e-08
172 2 0.001 -0.011878 0 -0.0308578 1.71941e-08 0 4.57247e-10 1.8968e-08 1.4954e-08
173 2 0.001 -0.0114537 0 -0.0303849 1.96576e-08 0 -2.54477e-09 1.08711e-08 1.49254e-08
320 3 0.001 -0.00824828 0 -0.0315191 2.40625e-09 0 -1.49736e-09 3.08152e-08 2.55075e-08
321 3 0.001 -0.00788326 0 -0.0309999 2.52756e-09 0 -1.25225e-09 1.04482e-08 2.54137e-08
322 3 0.001 -0.00751785 0 -0.030481 2.48791e-09 0 -6.2618e-10 1.95822e-08 2.54557e-08
469 4 0.001 -0.00456612 0 -0.031621 -3.51453e-09 0 7.46506e-09 1.26041e-08 1.9374e-08
470 4 0.001 -0.00430195 0 -0.0310435 -1.48667e-09 0 6.00405e-09 5.83689e-09 1.93469e-08
471 4 0.001 -0.00403797 0 -0.0304659 6.38493e-10 0 4.32754e-09 1.61853e-08 1.93883e-08
619 5 0.001 -0.000691865 0 -0.0312883 -5.67476e-09 0 -1.08028e-09 3.81684e-09 6.44977e-09
620 5 0.001 -0.000538854 0 -0.0306709 -5.6723e-09 0 -1.16236e-09 1.17821e-08 6.46816e-09
769 6 0.001 0.00341321 0 -0.0311525 -7.52951e-09 0 7.0385e-09 2.71206e-08 6.59404e-09
770 6 0.001 0.00347642 0 -0.0305196 -7.14633e-09 0 7.16086e-09 4.14403e-08 6.62746e-09
918 7 0.001 0.00766607 0 -0.031745 1.58185e-09 0 -6.88783e-09 6.19032e-08 5.87742e-09
919 7 0.001 0.00765775 0 -0.0311089 1.4846e-09 0 -7.15849e-09 7.52464e-08 5.90683e-09
920 7 0.001 0.00764394 0 -0.0304729 2.0503e-09 0 -7.3422e-09 8.94652e-08 5.93825e-09
1068 8 0.001 0.0121124 0 -0.0317565 -5.56127e-09 0 -2.68958e-10 1.38182e-07 6.43191e-09
1069 8 0.001 0.0120415 0 -0.0311244 -6.58531e-09 0 -1.76502e-10 1.49851e-07 6.45881e-09
1070 8 0.001 0.0119628 0 -0.0304932 -7.02392e-09 0 2.70816e-11 1.61127e-07 6.48484e-09
1219 9 0.001 0.0163963 0 -0.0311833 2.87502e-09 0 -4.19527e-09 2.3035e-07 5.10703e-09
1220 9 0.001 0.0162531 0 -0.0305633 1.1286e-09 0 -4.77364e-09 2.32678e-07 5.1118e-09
1370 10 0.001 0.0205685 0 -0.0306828 -5.18389e-10 0 3.98586e-10 3.08561e-07 3.7593e-09
1369 10 0.001 0.0207724 0 -0.0312857 1.04817e-09 0 6.31731e-10 3.186e-07 3.77698e-09
24 1 0.001 -0.0156342 0 -0.0302117 5.59092e-09 0 -1.72953e-10 1.00134e-08 1.16021e-08
25 1 0.001 -0.0151728 0 -0.0297745 6.17275e-09 0 -9.4341e-10 2.11549e-08 1.16366e-08
26 1 0.001 -0.014713 0 -0.0293357 6.95446e-09 0 -2.059e-09 6.1392e-08 1.17619e-08
27 1 0.001 -0.0142563 0 -0.0288936 7.64957e-09 0 -3.09044e-09 1.30115e-07 1.19774e-08
174 2 0.001 -0.0110298 0 -0.0299117 2.14532e-08 0 -4.97141e-09 3.28028e-08 1.50027e-08
175 2 0.001 -0.0106081 0 -0.0294364 2.23587e-08 0 -6.72493e-09 8.43884e-08 1.51852e-08
176 2 0.001 -0.0101906 0 -0.0289575 2.22208e-08 0 -7.59487e-09 1.64741e-07 1.54718e-08
323 3 0.001 -0.00715406 0 -0.0299609 2.61965e-09 0 -1.12765e-10 5.80143e-08 2.5633e-08
324 3 0.001 -0.0067939 0 -0.0294383 3.00129e-09 0 1.14975e-10 1.24888e-07 2.59429e-08
325 3 0.001 -0.00643939 0 -0.0289119 3.78182e-09 0 1.36015e-10 2.18704e-07 2.63809e-08
472 4 0.001 -0.00377586 0 -0.0298874 2.66802e-09 0 2.89947e-09 4.34489e-08 1.94979e-08
473 4 0.001 -0.00351731 0 -0.0293074 4.27948e-09 0 1.61434e-09 8.70983e-08 1.9674e-08
621 5 0.001 -0.000387747 0 -0.030053 -5.35241e-09 0 -1.22724e-09 2.64534e-08 6.50209e-09
622 5 0.001 -0.000239681 0 -0.0294343 -5.14686e-09 0 -1.14563e-09 4.76657e-08 6.55131e-09
623 5 0.001 -9.57877e-05 0 -0.0288147 -4.86923e-09 0 -9.65126e-10 7.51798e-08 6.61543e-09
771 6 0.001 0.0035356 0 -0.0298862 -6.46068e-09 0 7.12388e-09 5.86144e-08 6.66766e-09
772 6 0.001 0.00358998 0 -0.0292525 -5.48565e-09 0 6.92319e-09 7.84472e-08 6.71423e-09
921 7 0.001 0.00762413 0 -0.029837 3.21197e-09 0 -7.42196e-09 1.04406e-07 5.97135e-09
922 7 0.001 0.00759784 0 -0.0292014 4.9649e-09 0 -7.45149e-09 1.19908e-07 6.0058e-09
1071 8 0.001 0.0118761 0 -0.029863 -6.96736e-09 0 2.62763e-10 1.71882e-07 6.50973e-09
1072 8 0.001 0.0117811 0 -0.029234 -6.4607e-09 0 5.63524e-10 1.81993e-07 6.53317e-09
1222 9 0.001 0.0159385 0 -0.0293303 -1.93148e-09 0 -5.89215e-09 2.33877e-07 5.11427e-09
1221 9 0.001 0.0161005 0 -0.0299456 -5.61399e-10 0 -5.36227e-09 2.33858e-07 5.11423e-09
1371 10 0.001 0.0203541 0 -0.0300836 -1.64603e-09 0 2.83214e-10 2.97391e-07 3.73968e-09
1372 10 0.001 0.0201293 0 -0.0294881 -2.24741e-09 0 2.83239e-10 2.85189e-07 3.71831e-09
1373 10 0.001 0.0198946 0 -0.0288965 -2.43822e-09 0 4.61966e-10 2.72061e-07 3.69538e-09
28 1 0.001 -0.0138045 0 -0.0284466 8.23131e-09 0 -4.03627e-09 2.26272e-07 1.22823e-08
29 1 0.001 -0.0133593 0 -0.027993 8.78775e-09 0 -4.79493e-09 3.48367e-07 1.26749e-08
30 1 0.001 -0.0129226 0 -0.0275313 8.82931e-09 0 -5.00984e-09 4.94464e-07 1.31528e-08
177 2 0.001 -0.00977913 0 -0.0284735 2.11208e-08 0 -7.48259e-09 2.72463e-07 1.58602e-08
178 2 0.001 -0.00937556 0 -0.0279829 1.87886e-08 0 -6.50499e-09 4.05651e-07 1.63471e-08
179 2 0.001 -0.00898186 0 -0.0274843 1.53853e-08 0 -4.8051e-09 5.61906e-07 1.69276e-08
326 3 0.001 -0.00609256 0 -0.0283805 5.09158e-09 0 -1.40482e-10 3.37335e-07 2.694e-08
327 3 0.001 -0.00575543 0 -0.0278429 6.78975e-09 0 -6.57187e-10 4.78056e-07 2.76108e-08
328 3 0.001 -0.00543005 0 -0.0272981 8.5724e-09 0 -1.04473e-09 6.3758e-07 2.83812e-08
474 4 0.001 -0.00326402 0 -0.0287251 5.27257e-09 0 4.11433e-10 1.46281e-07 1.9914e-08
475 4 0.001 -0.00301767 0 -0.0281398 5.08736e-09 0 -4.53493e-10 2.19833e-07 2.02142e-08
476 4 0.001 -0.00277992 0 -0.027551 3.8897e-09 0 -8.37378e-10 3.06293e-07 2.05701e-08
624 5 0.001 4.28084e-05 0 -0.0281939 -4.63885e-09 0 -7.0841e-10 1.08683e-07 6.69393e-09
625 5 0.001 0.000174991 0 -0.0275717 -4.29248e-09 0 -4.97664e-10 1.47792e-07 6.78615e-09
773 6 0.001 0.00363878 0 -0.0286183 -4.2759e-09 0 6.66708e-09 1.00712e-07 6.76671e-09
774 6 0.001 0.00368125 0 -0.0279836 -2.93268e-09 0 6.46185e-09 1.25151e-07 6.82456e-09
775 6 0.001 0.00371665 0 -0.0273485 -1.90558e-09 0 6.27155e-09 1.51484e-07 6.88716e-09
923 7 0.001 0.0075646 0 -0.0285661 7.16304e-09 0 -7.37201e-09 1.35802e-07 6.04122e-09
924 7 0.001 0.00752399 0 -0.0279312 9.6568e-09 0 -7.25623e-09 1.51915e-07 6.07723e-09
925 7 0.001 0.00747557 0 -0.0272969 1.22867e-08 0 -7.07837e-09 1.68069e-07 6.11345e-09
1073 8 0.001 0.0116777 0 -0.0286063 -5.54602e-09 0 9.07374e-10 1.91346e-07 6.55488e-09
1075 8 0.001 0.0114448 0 -0.0273557 -3.00496e-09 0 1.70764e-09 2.07359e-07 6.59214e-09
1074 8 0.001 0.0115657 0 -0.0279802 -4.32696e-09 0 1.28165e-09 1.99834e-07 6.57462e-09
1223 9 0.001 0.0157671 0 -0.0287175 -3.01902e-09 0 -6.298e-09 2.32736e-07 5.11193e-09
1224 9 0.001 0.0155864 0 -0.0281075 -3.61903e-09 0 -6.60748e-09 2.30447e-07 5.10724e-09
1225 9 0.001 0.0153964 0 -0.0275002 -3.80514e-09 0 -6.77723e-09 2.27032e-07 5.10024e-09
1374 10 0.001 0.0196501 0 -0.0283088 -2.27879e-09 0 7.61982e-10 2.58122e-07 3.67112e-09
1375 10 0.001 0.0193962 0 -0.0277252 -1.82351e-09 0 1.1552e-09 2.43495e-07 3.64574e-09
31 1 0.001 -0.0124963 0 -0.0270601 8.25056e-09 0 -4.54191e-09 6.62184e-07 1.37123e-08
32 1 0.001 -0.0120821 0 -0.0265782 6.78175e-09 0 -3.50213e-09 8.48723e-07 1.43483e-08
33 1 0.001 -0.0116821 0 -0.0260845 4.53904e-09 0 -1.98219e-09 1.05086e-06 1.50538e-08
180 2 0.001 -0.00860001 0 -0.0269767 1.14324e-08 0 -2.78518e-09 7.38344e-07 1.75954e-08
181 2 0.001 -0.00823205 0 -0.026459 7.2664e-09 0 -7.44217e-10 9.31625e-07 1.83418e-08
182 2 0.001 -0.00788002 0 -0.0259304 3.09423e-09 0 1.21743e-09 1.13798e-06 1.91557e-08
329 3 0.001 -0.00511847 0 -0.0267454 9.82858e-09 0 -1.21765e-09 8.12111e-07 2.92363e-08
330 3 0.001 -0.00482273 0 -0.0261841 1.07723e-08 0 -1.28103e-09 9.97412e-07 3.01581e-08
477 4 0.001 -0.00255244 0 -0.0269582 1.79336e-09 0 -8.10875e-10 4.03922e-07 2.09757e-08
478 4 0.001 -0.00233687 0 -0.026361 -1.21992e-09 0 -5.82114e-10 5.10731e-07 2.1424e-08
479 4 0.001 -0.00213479 0 -0.0257591 -4.49798e-09 0 -1.42371e-10 6.24513e-07 2.19067e-08
626 5 0.001 0.000299657 0 -0.0269479 -3.93566e-09 0 -3.79568e-10 1.92054e-07 6.89128e-09
627 5 0.001 0.000415716 0 -0.0263226 -3.3839e-09 0 -2.80626e-10 2.40954e-07 7.00836e-09
776 6 0.001 0.00374426 0 -0.026713 -1.29415e-09 0 6.08051e-09 1.79402e-07 6.95385e-09
777 6 0.001 0.00376338 0 -0.0260773 -1.02202e-09 0 5.89861e-09 2.08578e-07 7.02388e-09
926 7 0.001 0.00741894 0 -0.0266633 1.47831e-08 0 -6.83281e-09 1.84087e-07 6.14946e-09
927 7 0.001 0.00735373 0 -0.0260305 1.68182e-08 0 -6.59306e-09 1.99793e-07 6.18488e-09
1076 8 0.001 0.0113149 0 -0.026733 -1.53764e-09 0 2.14285e-09 2.13835e-07 6.60724e-09
1077 8 0.001 0.011176 0 -0.0261122 -8.37926e-11 0 2.59877e-09 2.19187e-07 6.61973e-09
1226 9 0.001 0.0151974 0 -0.0268959 -3.52807e-09 0 -6.74553e-09 2.22526e-07 5.09101e-09
1227 9 0.001 0.0149893 0 -0.0262946 -2.81081e-09 0 -6.56029e-09 2.16976e-07 5.07965e-09
1377 10 0.001 0.0188617 0 -0.0265699 -3.94571e-10 0 2.24076e-09 2.12684e-07 3.59257e-09
1378 10 0.001 0.0185817 0 -0.0259983 3.46515e-10 0 2.81858e-09 1.96765e-07 3.56525e-09
1376 10 0.001 0.0191333 0 -0.0271455 -1.20642e-09 0 1.65008e-09 2.28305e-07 3.61948e-09
34 1 0.001 -0.0112983 0 -0.0255783 1.81317e-09 0 -2.05515e-10 1.265e-06 1.58196e-08
35 1 0.001 -0.0109327 0 -0.0250587 -1.30449e-09 0 1.81592e-09 1.48719e-06 1.66343e-08
36 1 0.001 -0.0105874 0 -0.0245256 -4.44956e-09 0 3.77481e-09 1.7132e-06 1.74841e-08
183 2 0.001 -0.00754599 0 -0.0253904 -5.89788e-10 0 2.84518e-09 1.35328e-06 2.00238e-08
184 2 0.001 -0.00723203 0 -0.0248384 -3.49366e-09 0 3.89622e-09 1.57307e-06 2.09299e-08
185 2 0.001 -0.00694019 0 -0.0242746 -5.77288e-09 0 4.50349e-09 1.79265e-06 2.18552e-08
331 3 0.001 -0.00454483 0 -0.0256138 1.11691e-08 0 -1.01532e-09 1.18889e-06 3.11256e-08
332 3 0.001 -0.00428673 0 -0.0250344 1.09735e-08 0 -6.22086e-10 1.38168e-06 3.21152e-08
333 3 0.001 -0.00405033 0 -0.0244458 9.88682e-09 0 7.70556e-12 1.57079e-06 3.3101e-08
480 4 0.001 -0.00194778 0 -0.0251524 -7.82096e-09 0 1.84372e-10 7.42878e-07 2.24146e-08
481 4 0.001 -0.00177734 0 -0.0245409 -1.08458e-08 0 3.6935e-10 8.63301e-07 2.29374e-08
628 5 0.001 0.000522098 0 -0.0256955 -2.90778e-09 0 -2.65328e-10 2.93912e-07 7.13628e-09
629 5 0.001 0.000617752 0 -0.0250667 -2.48787e-09 0 -2.48408e-10 3.50295e-07 7.27374e-09
630 5 0.001 0.000701657 0 -0.0244362 -2.12455e-09 0 -1.34006e-10 4.0942e-07 7.4193e-09
778 6 0.001 0.00377334 0 -0.0254413 -1.00353e-09 0 5.78499e-09 2.38668e-07 7.09648e-09
779 6 0.001 0.0037735 0 -0.0248052 -1.19427e-09 0 5.66571e-09 2.69312e-07 7.1708e-09
928 7 0.001 0.00727961 0 -0.0253986 1.83374e-08 0 -6.37521e-09 2.15011e-07 6.21929e-09
929 7 0.001 0.00719624 0 -0.024768 1.93743e-08 0 -6.15839e-09 2.29571e-07 6.25231e-09
1078 8 0.001 0.0110279 0 -0.0254936 1.40824e-09 0 3.03712e-09 2.23355e-07 6.62946e-09
1079 8 0.001 0.0108705 0 -0.0248773 2.79708e-09 0 3.42317e-09 2.26289e-07 6.63631e-09
1080 8 0.001 0.010704 0 -0.0242634 4.03089e-09 0 3.73566e-09 2.27956e-07 6.64021e-09
1230 9 0.001 0.0143129 0 -0.0245097 1.44733e-09 0 -5.10579e-09 1.94665e-07 5.03413e-09
1228 9 0.001 0.0147724 0 -0.0256964 -1.64201e-09 0 -6.24023e-09 2.10436e-07 5.06629e-09
1229 9 0.001 0.0145469 0 -0.0251014 -1.93329e-10 0 -5.74596e-09 2.02974e-07 5.05106e-09
1381 10 0.001 0.0176954 0 -0.0243071 1.85364e-09 0 4.21404e-09 1.48582e-07 3.48321e-09
1379 10 0.001 0.0182937 0 -0.0254307 1.02059e-09 0 3.37347e-09 1.80684e-07 3.53776e-09
1380 10 0.001 0.0179981 0 -0.024867 1.54315e-09 0 3.82089e-09 1.64578e-07 3.51034e-09
37 1 0.001 -0.0102644 0 -0.0239787 -7.42744e-09 0 5.45411e-09 1.93856e-06 1.83525e-08
38 1 0.001 -0.00996581 0 -0.0234182 -9.63566e-09 0 6.81593e-09 2.15868e-06 1.92211e-08
39 1 0.001 -0.00969358 0 -0.0228445 -1.05967e-08 0 7.66657e-09 2.36893e-06 2.00695e-08
186 2 0.001 -0.00667246 0 -0.0236989 -7.36141e-09 0 4.61501e-09 2.00722e-06 2.27786e-08
187 2 0.001 -0.00643079 0 -0.0231119 -8.41954e-09 0 4.44889e-09 2.21191e-06 2.36775e-08
334 3 0.001 -0.00383744 0 -0.0238483 8.19558e-09 0 6.80893e-10 1.75123e-06 3.40555e-08
335 3 0.001 -0.00364972 0 -0.0232425 5.88537e-09 0 1.37845e-09 1.9181e-06 3.49504e-08
482 4 0.001 -0.00162492 0 -0.0239247 -1.28108e-08 0 4.00253e-10 9.83171e-07 2.34637e-08
483 4 0.001 -0.00149188 0 -0.023304 -1.39225e-08 0 1.59281e-10 1.09985e-06 2.39817e-08
631 5 0.001 0.000772822 0 -0.0238042 -1.6656e-09 0 -1.68449e-11 4.70559e-07 7.57133e-09
632 5 0.001 0.000830292 0 -0.0231708 -1.03516e-09 0 9.37234e-11 5.32949e-07 7.72806e-09
780 6 0.001 0.00376324 0 -0.0241693 -1.6068e-09 0 5.34129e-09 3.00145e-07 7.24597e-09
781 6 0.001 0.00374198 0 -0.0235336 -2.26108e-09 0 4.95262e-09 3.30792e-07 7.32107e-09
782 6 0.001 0.00370919 0 -0.0228984 -3.21938e-09 0 4.4996e-09 3.60881e-07 7.39519e-09
930 7 0.001 0.00710333 0 -0.0241387 1.99361e-08 0 -5.91616e-09 2.43312e-07 6.28355e-09
931 7 0.001 0.00700063 0 -0.0235109 2.01873e-08 0 -5.69627e-09 2.56078e-07 6.31265e-09
932 7 0.001 0.00688792 0 -0.0228848 2.035e-08 0 -5.4543e-09 2.67725e-07 6.33925e-09
1081 8 0.001 0.0105281 0 -0.0236521 5.00308e-09 0 4.01402e-09 2.28337e-07 6.64109e-09
1082 8 0.001 0.0103431 0 -0.0230435 5.69562e-09 0 4.20308e-09 2.27428e-07 6.63895e-09
1231 9 0.001 0.0140707 0 -0.0239213 3.22864e-09 0 -4.39475e-09 1.85592e-07 5.01568e-09
1232 9 0.001 0.0138205 0 -0.0233362 5.04123e-09 0 -3.61551e-09 1.75847e-07 4.9959e-09
1233 9 0.001 0.0135626 0 -0.0227546 6.83463e-09 0 -2.84829e-09 1.65527e-07 4.97499e-09
1382 10 0.001 0.0173858 0 -0.0237509 1.99976e-09 0 4.43704e-09 1.3283e-07 3.45659e-09
1383 10 0.001 0.0170699 0 -0.0231983 1.92253e-09 0 4.52463e-09 1.17454e-07 3.43071e-09
40 1 0.001 -0.00944958 0 -0.0222582 -1.02545e-08 0 8.01501e-09 2.56476e-06 2.08762e-08
41 1 0.001 -0.00923557 0 -0.0216605 -8.55617e-09 0 7.81504e-09 2.7418e-06 2.16192e-08
188 2 0.001 -0.00621697 0 -0.0225142 -9.06552e-09 0 4.07501e-09 2.40199e-06 2.45278e-08
189 2 0.001 -0.00603269 0 -0.0219069 -9.47453e-09 0 3.74603e-09 2.57292e-06 2.53053e-08
190 2 0.001 -0.00587945 0 -0.021291 -9.228e-09 0 3.24693e-09 2.72057e-06 2.59866e-08
336 3 0.001 -0.00348871 0 -0.0226292 3.20595e-09 0 1.95613e-09 2.06683e-06 3.57577e-08
337 3 0.001 -0.00335576 0 -0.0220091 8.79879e-10 0 2.54529e-09 2.19325e-06 3.64512e-08