ITEM: TIMESTEP
8900000
ITEM: NUMBER OF ATOMS
1500
ITEM: BOX BOUNDS ff ff ff
-2.5000000000000001e-02 2.5000000000000001e-02
-5.0000000000000001e-03 5.0000000000000001e-03
-5.0000000000000003e-02 5.0000000000000003e-02
ITEM: ATOMS id type radius x y z fx fy fz c_bendingE c_stretchingE
1 1 0.001 -0.0224999 0 -0.0475 2.7719e-25 0 -4.97508e-12 0 1.02743e-27
151 2 0.001 -0.0174999 0 -0.0475 2.7719e-25 0 -4.97508e-12 0 1.02743e-27
301 3 0.001 -0.0125001 0 -0.0475 -2.7719e-25 0 -4.97508e-12 0 1.02743e-27
451 4 0.001 -0.00750009 0 -0.0475 -2.7719e-25 0 -4.97508e-12 0 1.02743e-27
601 5 0.001 -0.00250009 0 -0.0475 -2.7719e-25 0 -4.97508e-12 0 1.02743e-27
751 6 0.001 0.00250009 0 -0.0475 2.7719e-25 0 -4.97508e-12 0 1.02743e-27
901 7 0.001 0.00749991 0 -0.0475 -2.7719e-25 0 -4.97508e-12 0 1.02743e-27
1051 8 0.001 0.0125001 0 -0.0475 2.7719e-25 0 -4.97508e-12 0 1.02743e-27
1201 9 0.001 0.0174999 0 -0.0475 -2.7719e-25 0 -4.97508e-12 0 1.02743e-27
1351 10 0.001 0.0224999 0 -0.0475 -2.7719e-25 0 -4.97508e-12 0 1.02743e-27
2 1 0.001 -0.0224999 0 -0.0468624 2.7719e-25 0 1.06572e-11 0 2.36739e-27
3 1 0.001 -0.0224999 0 -0.0462248 2.7719e-25 0 -7.35475e-12 0 1.45623e-27
4 1 0.001 -0.0224999 0 -0.0455872 2.7719e-25 0 1.25761e-13 0 2.15764e-28
152 2 0.001 -0.0174999 0 -0.0468624 2.7719e-25 0 1.06572e-11 0 2.36739e-27
153 2 0.001 -0.0174999 0 -0.0462248 2.7719e-25 0 -7.35475e-12 0 1.45623e-27
154 2 0.001 -0.0174999 0 -0.0455872 2.7719e-25 0 1.25761e-13 0 2.15764e-28
302 3 0.001 -0.0125001 0 -0.0468624 -2.7719e-25 0 1.06572e-11 0 2.36739e-27
303 3 0.001 -0.0125001 0 -0.0462248 -2.7719e-25 0 -7.35475e-12 0 1.45623e-27
304 3 0.001 -0.0125001 0 -0.0455872 -2.7719e-25 0 1.25761e-13 0 2.15764e-28
452 4 0.001 -0.00750009 0 -0.0468624 -2.7719e-25 0 1.06572e-11 0 2.36739e-27
453 4 0.001 -0.00750009 0 -0.0462248 -2.7719e-25 0 -7.35475e-12 0 1.45623e-27
454 4 0.001 -0.00750009 0 -0.0455872 -2.7719e-25 0 1.25761e-13 0 2.15764e-28
602 5 0.001 -0.00250009 0 -0.0468624 -2.7719e-25 0 1.06572e-11 0 2.36739e-27
603 5 0.001 -0.00250009 0 -0.0462248 -2.7719e-25 0 -7.35475e-12 0 1.45623e-27
604 5 0.001 -0.00250009 0 -0.0455872 -2.7719e-25 0 1.25761e-13 0 2.15764e-28
752 6 0.001 0.00250009 0 -0.0468624 2.7719e-25 0 1.06572e-11 0 2.36739e-27
753 6 0.001 0.00250009 0 -0.0462248 2.7719e-25 0 -7.35475e-12 0 1.45623e-27
754 6 0.001 0.00250009 0 -0.0455872 2.7719e-25 0 1.25761e-13 0 2.15764e-28
902 7 0.001 0.00749991 0 -0.0468624 -2.7719e-25 0 1.06572e-11 0 2.36739e-27
903 7 0.001 0.00749991 0 -0.0462248 -2.7719e-25 0 -7.35475e-12 0 1.45623e-27
904 7 0.001 0.00749991 0 -0.0455872 -2.7719e-25 0 1.25761e-13 0 2.15764e-28
1052 8 0.001 0.0125001 0 -0.0468624 2.7719e-25 0 1.06572e-11 0 2.36739e-27
1053 8 0.001 0.0125001 0 -0.0462248 2.7719e-25 0 -7.35475e-12 0 1.45623e-27
1054 8 0.001 0.0125001 0 -0.0455872 2.7719e-25 0 1.25761e-13 0 2.15764e-28
1202 9 0.001 0.0174999 0 -0.0468624 -2.7719e-25 0 1.06572e-11 0 2.36739e-27
1203 9 0.001 0.0174999 0 -0.0462248 -2.7719e-25 0 -7.35475e-12 0 1.45623e-27
1204 9 0.001 0.0174999 0 -0.0455872 -2.7719e-25 0 1.25761e-13 0 2.15764e-28
1352 10 0.001 0.0224999 0 -0.0468624 -2.7719e-25 0 1.06572e-11 0 2.36739e-27
1353 10 0.001 0.0224999 0 -0.0462248 -2.7719e-25 0 -7.35475e-12 0 1.45623e-27
1354 10 0.001 0.0224999 0 -0.0455872 -2.7719e-25 0 1.25761e-13 0 2.15764e-28
5 1 0.001 -0.0224999 0 -0.0449497 2.7719e-25 0 3.59314e-12 0 2.73229e-28
6 1 0.001 -0.0224999 0 -0.0443121 2.7719e-25 0 -2.88356e-12 0 2.02865e-28
155 2 0.001 -0.0174999 0 -0.0449497 2.7719e-25 0 3.59314e-12 0 2.73229e-28
156 2 0.001 -0.0174999 0 -0.0443121 2.7719e-25 0 -2.88356e-12 0 2.02865e-28
305 3 0.001 -0.0125001 0 -0.0449497 -2.7719e-25 0 3.59314e-12 0 2.73229e-28
306 3 0.001 -0.0125001 0 -0.0443121 -2.7719e-25 0 -2.88356e-12 0 2.02865e-28
455 4 0.001 -0.00750009 0 -0.0449497 -2.7719e-25 0 3.59314e-12 0 2.73229e-28
456 4 0.001 -0.00750009 0 -0.0443121 -2.7719e-25 0 -2.88356e-12 0 2.02865e-28
605 5 0.001 -0.00250009 0 -0.0449497 -2.7719e-25 0 3.59314e-12 0 2.73229e-28
606 5 0.001 -0.00250009 0 -0.0443121 -2.7719e-25 0 -2.88356e-12 0 2.02865e-28
755 6 0.001 0.00250009 0 -0.0449497 2.7719e-25 0 3.59314e-12 0 2.73229e-28
756 6 0.001 0.00250009 0 -0.0443121 2.7719e-25 0 -2.88356e-12 0 2.02865e-28
905 7 0.001 0.00749991 0 -0.0449497 -2.7719e-25 0 3.59314e-12 0 2.73229e-28
906 7 0.001 0.00749991 0 -0.0443121 -2.7719e-25 0 -2.88356e-12 0 2.02865e-28
1055 8 0.001 0.0125001 0 -0.0449497 2.7719e-25 0 3.59314e-12 0 2.73229e-28
1056 8 0.001 0.0125001 0 -0.0443121 2.7719e-25 0 -2.88356e-12 0 2.02865e-28
1205 9 0.001 0.0174999 0 -0.0449497 -2.7719e-25 0 3.59314e-12 0 2.73229e-28
1206 9 0.001 0.0174999 0 -0.0443121 -2.7719e-25 0 -2.88356e-12 0 2.02865e-28
1355 10 0.001 0.0224999 0 -0.0449497 -2.7719e-25 0 3.59314e-12 0 2.73229e-28
1356 10 0.001 0.0224999 0 -0.0443121 -2.7719e-25 0 -2.88356e-12 0 2.02865e-28
7 1 0.001 -0.0224999 0 -0.0436745 2.7719e-25 0 3.05042e-12 0 2.32416e-28
8 1 0.001 -0.0224999 0 -0.0430369 2.7719e-25 0 -7.11918e-13 0 2.96992e-28
157 2 0.001 -0.0174999 0 -0.0436745 2.7719e-25 0 3.05042e-12 0 2.32416e-28
158 2 0.001 -0.0174999 0 -0.0430369 2.7719e-25 0 -7.11918e-13 0 2.96992e-28
307 3 0.001 -0.0125001 0 -0.0436745 -2.7719e-25 0 3.05042e-12 0 2.32416e-28
308 3 0.001 -0.0125001 0 -0.0430369 -2.7719e-25 0 -7.11918e-13 0 2.96992e-28
457 4 0.001 -0.00750009 0 -0.0436745 -2.7719e-25 0 3.05042e-12 0 2.32416e-28
458 4 0.001 -0.00750009 0 -0.0430369 -2.7719e-25 0 -7.11918e-13 0 2.96992e-28
607 5 0.001 -0.00250009 0 -0.0436745 -2.7719e-25 0 3.05042e-12 0 2.32416e-28
608 5 0.001 -0.00250009 0 -0.0430369 -2.7719e-25 0 -7.11918e-13 0 2.96992e-28
757 6 0.001 0.00250009 0 -0.0436745 2.7719e-25 0 3.05042e-12 0 2.32416e-28
758 6 0.001 0.00250009 0 -0.0430369 2.7719e-25 0 -7.11918e-13 0 2.96992e-28
907 7 0.001 0.00749991 0 -0.0436745 -2.7719e-25 0 3.05042e-12 0 2.32416e-28
908 7 0.001 0.00749991 0 -0.0430369 -2.7719e-25 0 -7.11918e-13 0 2.96992e-28
1057 8 0.001 0.0125001 0 -0.0436745 2.7719e-25 0 3.05042e-12 0 2.32416e-28
1058 8 0.001 0.0125001 0 -0.0430369 2.7719e-25 0 -7.11918e-13 0 2.96992e-28
1207 9 0.001 0.0174999 0 -0.0436745 -2.7719e-25 0 3.05042e-12 0 2.32416e-28
1208 9 0.001 0.0174999 0 -0.0430369 -2.7719e-25 0 -7.11918e-13 0 2.96992e-28
1357 10 0.001 0.0224999 0 -0.0436745 -2.7719e-25 0 3.05042e-12 0 2.32416e-28
1358 10 0.001 0.0224999 0 -0.0430369 -2.7719e-25 0 -7.11918e-13 0 2.96992e-28
9 1 0.001 -0.0224999 0 -0.0423993 2.7719e-25 0 -3.55188e-12 0 2.68107e-28
10 1 0.001 -0.0224999 0 -0.0417617 2.7719e-25 0 5.86417e-13 0 2.63442e-28
11 1 0.001 -0.0224999 0 -0.0411242 2.7719e-25 0 -2.51882e-13 0 2.1119e-28
159 2 0.001 -0.0174999 0 -0.0423993 2.7719e-25 0 -3.55188e-12 0 2.68107e-28
160 2 0.001 -0.0174999 0 -0.0417617 2.7719e-25 0 5.86417e-13 0 2.63442e-28
161 2 0.001 -0.0174999 0 -0.0411242 2.7719e-25 0 -2.51882e-13 0 2.1119e-28
309 3 0.001 -0.0125001 0 -0.0423993 -2.7719e-25 0 -3.55188e-12 0 2.68107e-28
310 3 0.001 -0.0125001 0 -0.0417617 -2.7719e-25 0 5.86417e-13 0 2.63442e-28
311 3 0.001 -0.0125001 0 -0.0411242 -2.7719e-25 0 -2.51882e-13 0 2.1119e-28
459 4 0.001 -0.00750009 0 -0.0423993 -2.7719e-25 0 -3.55188e-12 0 2.68107e-28
460 4 0.001 -0.00750009 0 -0.0417617 -2.7719e-25 0 5.86417e-13 0 2.63442e-28
461 4 0.001 -0.00750009 0 -0.0411242 -2.7719e-25 0 -2.51882e-13 0 2.1119e-28
609 5 0.001 -0.00250009 0 -0.0423993 -2.7719e-25 0 -3.55188e-12 0 2.68107e-28
610 5 0.001 -0.00250009 0 -0.0417617 -2.7719e-25 0 5.86417e-13 0 2.63442e-28
611 5 0.001 -0.00250009 0 -0.0411242 -2.7719e-25 0 -2.51882e-13 0 2.1119e-28
759 6 0.001 0.00250009 0 -0.0423993 2.7719e-25 0 -3.55188e-12 0 2.68107e-28
760 6 0.001 0.00250009 0 -0.0417617 2.7719e-25 0 5.86417e-13 0 2.63442e-28
761 6 0.001 0.00250009 0 -0.0411242 2.7719e-25 0 -2.51882e-13 0 2.1119e-28
909 7 0.001 0.00749991 0 -0.0423993 -2.7719e-25 0 -3.55188e-12 0 2.68107e-28
910 7 0.001 0.00749991 0 -0.0417617 -2.7719e-25 0 5.86417e-13 0 2.63442e-28
911 7 0.001 0.00749991 0 -0.0411242 -2.7719e-25 0 -2.51882e-13 0 2.1119e-28
1059 8 0.001 0.0125001 0 -0.0423993 2.7719e-25 0 -3.55188e-12 0 2.68107e-28
1060 8 0.001 0.0125001 0 -0.0417617 2.7719e-25 0 5.86417e-13 0 2.63442e-28
1061 8 0.001 0.0125001 0 -0.0411242 2.7719e-25 0 -2.51882e-13 0 2.1119e-28
1209 9 0.001 0.0174999 0 -0.0423993 -2.7719e-25 0 -3.55188e-12 0 2.68107e-28
1210 9 0.001 0.0174999 0 -0.0417617 -2.7719e-25 0 5.86417e-13 0 2.63442e-28
1211 9 0.001 0.0174999 0 -0.0411242 -2.7719e-25 0 -2.51882e-13 0 2.1119e-28
1359 10 0.001 0.0224999 0 -0.0423993 -2.7719e-25 0 -3.55188e-12 0 2.68107e-28
1360 10 0.001 0.0224999 0 -0.0417617 -2.7719e-25 0 5.86417e-13 0 2.63442e-28
1361 10 0.001 0.0224999 0 -0.0411242 -2.7719e-25 0 -2.51882e-13 0 2.1119e-28
12 1 0.001 -0.0224999 0 -0.0404866 2.7719e-25 0 5.8936e-12 0 8.46426e-28
13 1 0.001 -0.0224999 0 -0.039849 2.7719e-25 0 -6.01716e-12 0 8.64933e-28
162 2 0.001 -0.0174999 0 -0.0404866 2.7719e-25 0 5.8936e-12 0 8.46426e-28
163 2 0.001 -0.0174999 0 -0.039849 2.7719e-25 0 -6.01716e-12 0 8.64933e-28
312 3 0.001 -0.0125001 0 -0.0404866 -2.7719e-25 0 5.8936e-12 0 8.46426e-28
313 3 0.001 -0.0125001 0 -0.039849 -2.7719e-25 0 -6.01716e-12 0 8.64933e-28
462 4 0.001 -0.00750009 0 -0.0404866 -2.7719e-25 0 5.8936e-12 0 8.46426e-28
463 4 0.001 -0.00750009 0 -0.039849 -2.7719e-25 0 -6.01716e-12 0 8.64933e-28
612 5 0.001 -0.00250009 0 -0.0404866 -2.7719e-25 0 5.8936e-12 0 8.46426e-28
613 5 0.001 -0.00250009 0 -0.039849 -2.7719e-25 0 -6.01716e-12 0 8.64933e-28
762 6 0.001 0.00250009 0 -0.0404866 2.7719e-25 0 5.8936e-12 0 8.46426e-28
763 6 0.001 0.00250009 0 -0.039849 2.7719e-25 0 -6.01716e-12 0 8.64933e-28
912 7 0.001 0.00749991 0 -0.0404866 -2.7719e-25 0 5.8936e-12 0 8.46426e-28
913 7 0.001 0.00749991 0 -0.039849 -2.7719e-25 0 -6.01716e-12 0 8.64933e-28
1062 8 0.001 0.0125001 0 -0.0404866 2.7719e-25 0 5.8936e-12 0 8.46426e-28
1063 8 0.001 0.0125001 0 -0.039849 2.7719e-25 0 -6.01716e-12 0 8.64933e-28
1212 9 0.001 0.0174999 0 -0.0404866 -2.7719e-25 0 5.8936e-12 0 8.46426e-28
1213 9 0.001 0.0174999 0 -0.039849 -2.7719e-25 0 -6.01716e-12 0 8.64933e-28
1362 10 0.001 0.0224999 0 -0.0404866 -2.7719e-25 0 5.8936e-12 0 8.46426e-28
1363 10 0.001 0.0224999 0 -0.039849 -2.7719e-25 0 -6.01716e-12 0 8.64933e-28
14 1 0.001 -0.0224999 0 -0.0392114 2.7719e-25 0 2.13072e-12 0 1.44156e-28
15 1 0.001 -0.0224999 0 -0.0385738 2.7719e-25 0 -2.71581e-12 0 2.47776e-28
16 1 0.001 -0.0224999 0 -0.0379362 2.7719e-25 0 2.38195e-12 0 2.44351e-28
164 2 0.001 -0.0174999 0 -0.0392114 2.7719e-25 0 2.13072e-12 0 1.44156e-28
165 2 0.001 -0.0174999 0 -0.0385738 2.7719e-25 0 -2.71581e-12 0 2.47776e-28
166 2 0.001 -0.0174999 0 -0.0379362 2.7719e-25 0 2.38195e-12 0 2.44351e-28
314 3 0.001 -0.0125001 0 -0.0392114 -2.7719e-25 0 2.13072e-12 0 1.44156e-28
315 3 0.001 -0.0125001 0 -0.0385738 -2.7719e-25 0 -2.71581e-12 0 2.47776e-28
316 3 0.001 -0.0125001 0 -0.0379362 -2.7719e-25 0 2.38195e-12 0 2.44351e-28
464 4 0.001 -0.00750009 0 -0.0392114 -2.7719e-25 0 2.13072e-12 0 1.44156e-28
465 4 0.001 -0.00750009 0 -0.0385738 -2.7719e-25 0 -2.71581e-12 0 2.47776e-28
466 4 0.001 -0.00750009 0 -0.0379362 -2.7719e-25 0 2.38195e-12 0 2.44351e-28
614 5 0.001 -0.00250009 0 -0.0392114 -2.7719e-25 0 2.13072e-12 0 1.44156e-28
615 5 0.001 -0.00250009 0 -0.0385738 -2.7719e-25 0 -2.71581e-12 0 2.47776e-28
616 5 0.001 -0.00250009 0 -0.0379362 -2.7719e-25 0 2.38195e-12 0 2.44351e-28
764 6 0.001 0.00250009 0 -0.0392114 2.7719e-25 0 2.13072e-12 0 1.44156e-28
765 6 0.001 0.00250009 0 -0.0385738 2.7719e-25 0 -2.71581e-12 0 2.47776e-28
766 6 0.001 0.00250009 0 -0.0379362 2.7719e-25 0 2.38195e-12 0 2.44351e-28
914 7 0.001 0.00749991 0 -0.0392114 -2.7719e-25 0 2.13072e-12 0 1.44156e-28
915 7 0.001 0.00749991 0 -0.0385738 -2.7719e-25 0 -2.71581e-12 0 2.47776e-28
916 7 0.001 0.00749991 0 -0.0379362 -2.7719e-25 0 2.38195e-12 0 2.44351e-28
1064 8 0.001 0.0125001 0 -0.0392114 2.7719e-25 0 2.13072e-12 0 1.44156e-28
1065 8 0.001 0.0125001 0 -0.0385738 2.7719e-25 0 -2.71581e-12 0 2.47776e-28
1066 8 0.001 0.0125001 0 -0.0379362 2.7719e-25 0 2.38195e-12 0 2.44351e-28
1214 9 0.001 0.0174999 0 -0.0392114 -2.7719e-25 0 2.13072e-12 0 1.44156e-28
1215 9 0.001 0.0174999 0 -0.0385738 -2.7719e-25 0 -2.71581e-12 0 2.47776e-28
1216 9 0.001 0.0174999 0 -0.0379362 -2.7719e-25 0 2.38195e-12 0 2.44351e-28
1364 10 0.001 0.0224999 0 -0.0392114 -2.7719e-25 0 2.13072e-12 0 1.44156e-28
1365 10 0.001 0.0224999 0 -0.0385738 -2.7719e-25 0 -2.71581e-12 0 2.47776e-28
1366 10 0.001 0.0224999 0 -0.0379362 -2.7719e-25 0 2.38195e-12 0 2.44351e-28
17 1 0.001 -0.0224999 0 -0.0372987 2.7719e-25 0 2.54881e-12 0 2.60658e-28
18 1 0.001 -0.0224999 0 -0.0366611 2.7719e-25 0 -6.39453e-12 0 8.88229e-28
167 2 0.001 -0.0174999 0 -0.0372987 2.7719e-25 0 2.54881e-12 0 2.60658e-28
168 2 0.001 -0.0174999 0 -0.0366611 2.7719e-25 0 -6.39453e-12 0 8.88229e-28
317 3 0.001 -0.0125001 0 -0.0372987 -2.7719e-25 0 2.54881e-12 0 2.60658e-28
318 3 0.001 -0.0125001 0 -0.0366611 -2.7719e-25 0 -6.39453e-12 0 8.88229e-28
467 4 0.001 -0.00750009 0 -0.0372987 -2.7719e-25 0 2.54881e-12 0 2.60658e-28
468 4 0.001 -0.00750009 0 -0.0366611 -2.7719e-25 0 -6.39453e-12 0 8.88229e-28
617 5 0.001 -0.00250009 0 -0.0372987 -2.7719e-25 0 2.54881e-12 0 2.60658e-28
618 5 0.001 -0.00250009 0 -0.0366611 -2.7719e-25 0 -6.39453e-12 0 8.88229e-28
767 6 0.001 0.00250009 0 -0.0372987 2.7719e-25 0 2.54881e-12 0 2.60658e-28
768 6 0.001 0.00250009 0 -0.0366611 2.7719e-25 0 -6.39453e-12 0 8.88229e-28
917 7 0.001 0.00749991 0 -0.0372987 -2.7719e-25 0 2.54881e-12 0 2.60658e-28
918 7 0.001 0.00749991 0 -0.0366611 -2.7719e-25 0 -6.39453e-12 0 8.88229e-28
1067 8 0.001 0.0125001 0 -0.0372987 2.7719e-25 0 2.54881e-12 0 2.60658e-28
1068 8 0.001 0.0125001 0 -0.0366611 2.7719e-25 0 -6.39453e-12 0 8.88229e-28
1217 9 0.001 0.0174999 0 -0.0372987 -2.7719e-25 0 2.54881e-12 0 2.60658e-28
1218 9 0.001 0.0174999 0 -0.0366611 -2.7719e-25 0 -6.39453e-12 0 8.88229e-28
1367 10 0.001 0.0224999 0 -0.0372987 -2.7719e-25 0 2.54881e-12 0 2.60658e-28
1368 10 0.001 0.0224999 0 -0.0366611 -2.7719e-25 0 -6.39453e-12 0 8.88229e-28
19 1 0.001 -0.0224999 0 -0.0360235 2.7719e-25 0 7.89857e-12 0 1.29512e-27
20 1 0.001 -0.0224999 0 -0.0353859 2.7719e-25 0 -4.34625e-12 0 6.72166e-28
169 2 0.001 -0.0174999 0 -0.0360235 2.7719e-25 0 7.89857e-12 0 1.29512e-27
170 2 0.001 -0.0174999 0 -0.0353859 2.7719e-25 0 -4.34625e-12 0 6.72166e-28
319 3 0.001 -0.0125001 0 -0.0360235 -2.7719e-25 0 7.89857e-12 0 1.29512e-27
320 3 0.001 -0.0125001 0 -0.0353859 -2.7719e-25 0 -4.34625e-12 0 6.72166e-28
469 4 0.001 -0.00750009 0 -0.0360235 -2.7719e-25 0 7.89857e-12 0 1.29512e-27
470 4 0.001 -0.00750009 0 -0.0353859 -2.7719e-25 0 -4.34625e-12 0 6.72166e-28
619 5 0.001 -0.00250009 0 -0.0360235 -2.7719e-25 0 7.89857e-12 0 1.29512e-27
620 5 0.001 -0.00250009 0 -0.0353859 -2.7719e-25 0 -4.34625e-12 0 6.72166e-28
769 6 0.001 0.00250009 0 -0.0360235 2.7719e-25 0 7.89857e-12 0 1.29512e-27
770 6 0.001 0.00250009 0 -0.0353859 2.7719e-25 0 -4.34625e-12 0 6.72166e-28
919 7 0.001 0.00749991 0 -0.0360235 -2.7719e-25 0 7.89857e-12 0 1.29512e-27
920 7 0.001 0.00749991 0 -0.0353859 -2.7719e-25 0 -4.34625e-12 0 6.72166e-28
1069 8 0.001 0.0125001 0 -0.0360235 2.7719e-25 0 7.89857e-12 0 1.29512e-27
1070 8 0.001 0.0125001 0 -0.0353859 2.7719e-25 0 -4.34625e-12 0 6.72166e-28
1219 9 0.001 0.0174999 0 -0.0360235 -2.7719e-25 0 7.89857e-12 0 1.29512e-27
1220 9 0.001 0.0174999 0 -0.0353859 -2.7719e-25 0 -4.34625e-12 0 6.72166e-28
1369 10 0.001 0.0224999 0 -0.0360235 -2.7719e-25 0 7.89857e-12 0 1.29512e-27
1370 10 0.001 0.0224999 0 -0.0353859 -2.7719e-25 0 -4.34625e-12 0 6.72166e-28
21 1 0.001 -0.0224999 0 -0.0347483 2.7719e-25 0 7.10604e-13 0 1.05055e-29
22 1 0.001 -0.0224999 0 -0.0341107 2.7719e-25 0 -6.28526e-13 0 8.46197e-30
23 1 0.001 -0.0224999 0 -0.0334732 2.7719e-25 0 -2.59007e-12 0 3.38335e-28
171 2 0.001 -0.0174999 0 -0.0347483 2.7719e-25 0 7.10604e-13 0 1.05055e-29
172 2 0.001 -0.0174999 0 -0.0341107 2.7719e-25 0 -6.28526e-13 0 8.46197e-30
173 2 0.001 -0.0174999 0 -0.0334732 2.7719e-25 0 -2.59007e-12 0 3.38335e-28
321 3 0.001 -0.0125001 0 -0.0347483 -2.7719e-25 0 7.10604e-13 0 1.05055e-29
322 3 0.001 -0.0125001 0 -0.0341107 -2.7719e-25 0 -6.28526e-13 0 8.46197e-30
323 3 0.001 -0.0125001 0 -0.0334732 -2.7719e-25 0 -2.59007e-12 0 3.38335e-28
471 4 0.001 -0.00750009 0 -0.0347483 -2.7719e-25 0 7.10604e-13 0 1.05055e-29
472 4 0.001 -0.00750009 0 -0.0341107 -2.7719e-25 0 -6.28526e-13 0 8.46197e-30
473 4 0.001 -0.00750009 0 -0.0334732 -2.7719e-25 0 -2.59007e-12 0 3.38335e-28
621 5 0.001 -0.00250009 0 -0.0347483 -2.7719e-25 0 7.10604e-13 0 1.05055e-29
622 5 0.001 -0.00250009 0 -0.0341107 -2.7719e-25 0 -6.28526e-13 0 8.46197e-30
623 5 0.001 -0.00250009 0 -0.0334732 -2.7719e-25 0 -2.59007e-12 0 3.38335e-28
771 6 0.001 0.00250009 0 -0.0347483 2.7719e-25 0 7.10604e-13 0 1.05055e-29
772 6 0.001 0.00250009 0 -0.0341107 2.7719e-25 0 -6.28526e-13 0 8.46197e-30
773 6 0.001 0.00250009 0 -0.0334732 2.7719e-25 0 -2.59007e-12 0 3.38335e-28
921 7 0.001 0.00749991 0 -0.0347483 -2.7719e-25 0 7.10604e-13 0 1.05055e-29
922 7 0.001 0.00749991 0 -0.0341107 -2.7719e-25 0 -6.28526e-13 0 8.46197e-30
923 7 0.001 0.00749991 0 -0.0334732 -2.7719e-25 0 -2.59007e-12 0 3.38335e-28
1071 8 0.001 0.0125001 0 -0.0347483 2.7719e-25 0 7.10604e-13 0 1.05055e-29
1072 8 0.001 0.0125001 0 -0.0341107 2.7719e-25 0 -6.28526e-13 0 8.46197e-30
1073 8 0.001 0.0125001 0 -0.0334732 2.7719e-25 0 -2.59007e-12 0 3.38335e-28
1221 9 0.001 0.0174999 0 -0.0347483 -2.7719e-25 0 7.10604e-13 0 1.05055e-29
1222 9 0.001 0.0174999 0 -0.0341107 -2.7719e-25 0 -6.28526e-13 0 8.46197e-30
1223 9 0.001 0.0174999 0 -0.0334732 -2.7719e-25 0 -2.59007e-12 0 3.38335e-28
1371 10 0.001 0.0224999 0 -0.0347483 -2.7719e-25 0 7.10604e-13 0 1.05055e-29
1372 10 0.001 0.0224999 0 -0.0341107 -2.7719e-25 0 -6.28526e-13 0 8.46197e-30
1373 10 0.001 0.0224999 0 -0.0334732 -2.7719e-25 0 -2.59007e-12 0 3.38335e-28
24 1 0.001 -0.0224999 0 -0.0328356 2.7719e-25 0 4.80637e-12 0 4.95509e-28
25 1 0.001 -0.0224999 0 -0.032198 2.7719e-25 0 6.6841e-13 0 4.47133e-28
174 2 0.001 -0.0174999 0 -0.0328356 2.7719e-25 0 4.80637e-12 0 4.95509e-28
175 2 0.001 -0.0174999 0 -0.032198 2.7719e-25 0 6.6841e-13 0 4.47133e-28
324 3 0.001 -0.0125001 0 -0.0328356 -2.7719e-25 0 4.80637e-12 0 4.95509e-28
325 3 0.001 -0.0125001 0 -0.032198 -2.7719e-25 0 6.6841e-13 0 4.47133e-28
474 4 0.001 -0.00750009 0 -0.0328356 -2.7719e-25 0 4.80637e-12 0 4.95509e-28
475 4 0.001 -0.00750009 0 -0.032198 -2.7719e-25 0 6.6841e-13 0 4.47133e-28
624 5 0.001 -0.00250009 0 -0.0328356 -2.7719e-25 0 4.80637e-12 0 4.95509e-28
625 5 0.001 -0.00250009 0 -0.032198 -2.7719e-25 0 6.6841e-13 0 4.47133e-28
774 6 0.001 0.00250009 0 -0.0328356 2.7719e-25 0 4.80637e-12 0 4.95509e-28
775 6 0.001 0.00250009 0 -0.032198 2.7719e-25 0 6.6841e-13 0 4.47133e-28
924 7 0.001 0.00749991 0 -0.0328356 -2.7719e-25 0 4.80637e-12 0 4.95509e-28
925 7 0.001 0.00749991 0 -0.032198 -2.7719e-25 0 6.6841e-13 0 4.47133e-28
1074 8 0.001 0.0125001 0 -0.0328356 2.7719e-25 0 4.80637e-12 0 4.95509e-28
1075 8 0.001 0.0125001 0 -0.032198 2.7719e-25 0 6.6841e-13 0 4.47133e-28
1224 9 0.001 0.0174999 0 -0.0328356 -2.7719e-25 0 4.80637e-12 0 4.95509e-28
1225 9 0.001 0.0174999 0 -0.032198 -2.7719e-25 0 6.6841e-13 0 4.47133e-28
1374 10 0.001 0.0224999 0 -0.0328356 -2.7719e-25 0 4.80637e-12 0 4.95509e-28
1375 10 0.001 0.0224999 0 -0.032198 -2.7719e-25 0 6.6841e-13 0 4.47133e-28
26 1 0.001 -0.0224999 0 -0.0315604 2.7719e-25 0 -4.32454e-12 0 4.06496e-28
27 1 0.001 -0.0224999 0 -0.0309228 2.7719e-25 0 3.74018e-12 0 2.92917e-28
176 2 0.001 -0.0174999 0 -0.0315604 2.7719e-25 0 -4.32454e-12 0 4.06496e-28
177 2 0.001 -0.0174999 0 -0.0309228 2.7719e-25 0 3.74018e-12 0 2.92917e-28
326 3 0.001 -0.0125001 0 -0.0315604 -2.7719e-25 0 -4.32454e-12 0 4.06496e-28
327 3 0.001 -0.0125001 0 -0.0309228 -2.7719e-25 0 3.74018e-12 0 2.92917e-28
476 4 0.001 -0.00750009 0 -0.0315604 -2.7719e-25 0 -4.32454e-12 0 4.06496e-28
477 4 0.001 -0.00750009 0 -0.0309228 -2.7719e-25 0 3.74018e-12 0 2.92917e-28
626 5 0.001 -0.00250009 0 -0.0315604 -2.7719e-25 0 -4.32454e-12 0 4.06496e-28
627 5 0.001 -0.00250009 0 -0.0309228 -2.7719e-25 0 3.74018e-12 0 2.92917e-28
776 6 0.001 0.00250009 0 -0.0315604 2.7719e-25 0 -4.32454e-12 0 4.06496e-28
777 6 0.001 0.00250009 0 -0.0309228 2.7719e-25 0 3.74018e-12 0 2.92917e-28
926 7 0.001 0.00749991 0 -0.0315604 -2.7719e-25 0 -4.32454e-12 0 4.06496e-28
927 7 0.001 0.00749991 0 -0.0309228 -2.7719e-25 0 3.74018e-12 0 2.92917e-28
1076 8 0.001 0.0125001 0 -0.0315604 2.7719e-25 0 -4.32454e-12 0 4.06496e-28
1077 8 0.001 0.0125001 0 -0.0309228 2.7719e-25 0 3.74018e-12 0 2.92917e-28
1226 9 0.001 0.0174999 0 -0.0315604 -2.7719e-25 0 -4.32454e-12 0 4.06496e-28
1227 9 0.001 0.0174999 0 -0.0309228 -2.7719e-25 0 3.74018e-12 0 2.92917e-28
1376 10 0.001 0.0224999 0 -0.0315604 -2.7719e-25 0 -4.32454e-12 0 4.06496e-28
1377 10 0.001 0.0224999 0 -0.0309228 -2.7719e-25 0 3.74018e-12 0 2.92917e-28
28 1 0.001 -0.0224999 0 -0.0302852 2.7719e-25 0 -4.05426e-12 0 3.41087e-28
29 1 0.001 -0.0224999 0 -0.0296477 2.7719e-25 0 -3.51088e-12 0 1.43143e-27
30 1 0.001 -0.0224999 0 -0.0290101 2.7719e-25 0 9.80118e-12 0 2.02503e-27
178 2 0.001 -0.0174999 0 -0.0302852 2.7719e-25 0 -4.05426e-12 0 3.41087e-28
179 2 0.001 -0.0174999 0 -0.0296477 2.7719e-25 0 -3.51088e-12 0 1.43143e-27
180 2 0.001 -0.0174999 0 -0.0290101 2.7719e-25 0 9.80118e-12 0 2.02503e-27
328 3 0.001 -0.0125001 0 -0.0302852 -2.7719e-25 0 -4.05426e-12 0 3.41087e-28
329 3 0.001 -0.0125001 0 -0.0296477 -2.7719e-25 0 -3.51088e-12 0 1.43143e-27
330 3 0.001 -0.0125001 0 -0.0290101 -2.7719e-25 0 9.80118e-12 0 2.02503e-27
478 4 0.001 -0.00750009 0 -0.0302852 -2.7719e-25 0 -4.05426e-12 0 3.41087e-28
479 4 0.001 -0.00750009 0 -0.0296477 -2.7719e-25 0 -3.51088e-12 0 1.43143e-27
480 4 0.001 -0.00750009 0 -0.0290101 -2.7719e-25 0 9.80118e-12 0 2.02503e-27
628 5 0.001 -0.00250009 0 -0.0302852 -2.7719e-25 0 -4.05426e-12 0 3.41087e-28
629 5 0.001 -0.00250009 0 -0.0296477 -2.7719e-25 0 -3.51088e-12 0 1.43143e-27
630 5 0.001 -0.00250009 0 -0.0290101 -2.7719e-25 0 9.80118e-12 0 2.02503e-27
778 6 0.001 0.00250009 0 -0.0302852 2.7719e-25 0 -4.05426e-12 0 3.41087e-28
779 6 0.001 0.00250009 0 -0.0296477 2.7719e-25 0 -3.51088e-12 0 1.43143e-27
780 6 0.001 0.00250009 0 -0.0290101 2.7719e-25 0 9.80118e-12 0 2.02503e-27
928 7 0.001 0.00749991 0 -0.0302852 -2.7719e-25 0 -4.05426e-12 0 3.41087e-28
929 7 0.001 0.00749991 0 -0.0296477 -2.7719e-25 0 -3.51088e-12 0 1.43143e-27
930 7 0.001 0.00749991 0 -0.0290101 -2.7719e-25 0 9.80118e-12 0 2.02503e-27
1078 8 0.001 0.0125001 0 -0.0302852 2.7719e-25 0 -4.05426e-12 0 3.41087e-28
1079 8 0.001 0.0125001 0 -0.0296477 2.7719e-25 0 -3.51088e-12 0 1.43143e-27
1080 8 0.001 0.0125001 0 -0.0290101 2.7719e-25 0 9.80118e-12 0 2.02503e-27
1228 9 0.001 0.0174999 0 -0.0302852 -2.7719e-25 0 -4.05426e-12 0 3.41087e-28
1229 9 0.001 0.0174999 0 -0.0296477 -2.7719e-25 0 -3.51088e-12 0 1.43143e-27
1230 9 0.001 0.0174999 0 -0.0290101 -2.7719e-25 0 9.80118e-12 0 2.02503e-27
1378 10 0.001 0.0224999 0 -0.0302852 -2.7719e-25 0 -4.05426e-12 0 3.41087e-28
1379 10 0.001 0.0224999 0 -0.0296477 -2.7719e-25 0 -3.51088e-12 0 1.43143e-27
1380 10 0.001 0.0224999 0 -0.0290101 -2.7719e-25 0 9.80118e-12 0 2.02503e-27
31 1 0.001 -0.0224999 0 -0.0283725 2.7719e-25 0 -4.78608e-12 0 7.71486e-28
32 1 0.001 -0.0224999 0 -0.0277349 2.7719e-25 0 3.17655e-12 0 3.0703e-28
181 2 0.001 -0.0174999 0 -0.0283725 2.7719e-25 0 -4.78608e-12 0 7.71486e-28
182 2 0.001 -0.0174999 0 -0.0277349 2.7719e-25 0 3.17655e-12 0 3.0703e-28
331 3 0.001 -0.0125001 0 -0.0283725 -2.7719e-25 0 -4.78608e-12 0 7.71486e-28
332 3 0.001 -0.0125001 0 -0.0277349 -2.7719e-25 0 3.17655e-12 0 3.0703e-28
481 4 0.001 -0.00750009 0 -0.0283725 -2.7719e-25 0 -4.78608e-12 0 7.71486e-28
482 4 0.001 -0.00750009 0 -0.0277349 -2.7719e-25 0 3.17655e-12 0 3.0703e-28
631 5 0.001 -0.00250009 0 -0.0283725 -2.7719e-25 0 -4.78608e-12 0 7.71486e-28
632 5 0.001 -0.00250009 0 -0.0277349 -2.7719e-25 0 3.17655e-12 0 3.0703e-28
781 6 0.001 0.00250009 0 -0.0283725 2.7719e-25 0 -4.78608e-12 0 7.71486e-28
782 6 0.001 0.00250009 0 -0.0277349 2.7719e-25 0 3.17655e-12 0 3.0703e-28
931 7 0.001 0.00749991 0 -0.0283725 -2.7719e-25 0 -4.78608e-12 0 7.71486e-28
932 7 0.001 0.00749991 0 -0.0277349 -2.7719e-25 0 3.17655e-12 0 3.0703e-28
1081 8 0.001 0.0125001 0 -0.0283725 2.7719e-25 0 -4.78608e-12 0 7.71486e-28
1082 8 0.001 0.0125001 0 -0.0277349 2.7719e-25 0 3.17655e-12 0 3.0703e-28
1231 9 0.001 0.0174999 0 -0.0283725 -2.7719e-25 0 -4.78608e-12 0 7.71486e-28
1232 9 0.001 0.0174999 0 -0.0277349 -2.7719e-25 0 3.17655e-12 0 3.0703e-28
1381 10 0.001 0.0224999 0 -0.0283725 -2.7719e-25 0 -4.78608e-12 0 7.71486e-28
1382 10 0.001 0.0224999 0 -0.0277349 -2.7719e-25 0 3.17655e-12 0 3.0703e-28
33 1 0.001 -0.0224999 0 -0.0270973 2.7719e-25 0 -2.59017e-12 0 2.96786e-28
34 1 0.001 -0.0224999 0 -0.0264597 2.7719e-25 0 -2.84231e-12 0 3.16518e-28
35 1 0.001 -0.0224999 0 -0.0258221 2.7719e-25 0 3.238e-12 0 3.25751e-28
183 2 0.001 -0.0174999 0 -0.0270973 2.7719e-25 0 -2.59017e-12 0 2.96786e-28
184 2 0.001 -0.0174999 0 -0.0264597 2.7719e-25 0 -2.84231e-12 0 3.16518e-28
185 2 0.001 -0.0174999 0 -0.0258221 2.7719e-25 0 3.238e-12 0 3.25751e-28
333 3 0.001 -0.0125001 0 -0.0270973 -2.7719e-25 0 -2.59017e-12 0 2.96786e-28
334 3 0.001 -0.0125001 0 -0.0264597 -2.7719e-25 0 -2.84231e-12 0 3.16518e-28
335 3 0.001 -0.0125001 0 -0.0258221 -2.7719e-25 0 3.238e-12 0 3.25751e-28
483 4 0.001 -0.00750009 0 -0.0270973 -2.7719e-25 0 -2.59017e-12 0 2.96786e-28
484 4 0.001 -0.00750009 0 -0.0264597 -2.7719e-25 0 -2.84231e-12 0 3.16518e-28
485 4 0.001 -0.00750009 0 -0.0258221 -2.7719e-25 0 3.238e-12 0 3.25751e-28
633 5 0.001 -0.00250009 0 -0.0270973 -2.7719e-25 0 -2.59017e-12 0 2.96786e-28
634 5 0.001 -0.00250009 0 -0.0264597 -2.7719e-25 0 -2.84231e-12 0 3.16518e-28
635 5 0.001 -0.00250009 0 -0.0258221 -2.7719e-25 0 3.238e-12 0 3.25751e-28
783 6 0.001 0.00250009 0 -0.0270973 2.7719e-25 0 -2.59017e-12 0 2.96786e-28
784 6 0.001 0.00250009 0 -0.0264597 2.7719e-25 0 -2.84231e-12 0 3.16518e-28
785 6 0.001 0.00250009 0 -0.0258221 2.7719e-25 0 3.238e-12 0 3.25751e-28
933 7 0.001 0.00749991 0 -0.0270973 -2.7719e-25 0 -2.59017e-12 0 2.96786e-28
934 7 0.001 0.00749991 0 -0.0264597 -2.7719e-25 0 -2.84231e-12 0 3.16518e-28
935 7 0.001 0.00749991 0 -0.0258221 -2.7719e-25 0 3.238e-12 0 3.25751e-28
1083 8 0.001 0.0125001 0 -0.0270973 2.7719e-25 0 -2.59017e-12 0 2.96786e-28
1084 8 0.001 0.0125001 0 -0.0264597 2.7719e-25 0 -2.84231e-12 0 3.16518e-28
1085 8 0.001 0.0125001 0 -0.0258221 2.7719e-25 0 3.238e-12 0 3.25751e-28
1233 9 0.001 0.0174999 0 -0.0270973 -2.7719e-25 0 -2.59017e-12 0 2.96786e-28
1234 9 0.001 0.0174999 0 -0.0264597 -2.7719e-25 0 -2.84231e-12 0 3.16518e-28
1235 9 0.001 0.0174999 0 -0.0258221 -2.7719e-25 0 3.238e-12 0 3.25751e-28
1383 10 0.001 0.0224999 0 -0.0270973 -2.7719e-25 0 -2.59017e-12 0 2.96786e-28
1384 10 0.001 0.0224999 0 -0.0264597 -2.7719e-25 0 -2.84231e-12 0 3.16518e-28
1385 10 0.001 0.0224999 0 -0.0258221 -2.7719e-25 0 3.238e-12 0 3.25751e-28
36 1 0.001 -0.0224999 0 -0.0251846 2.7719e-25 0 1.83843e-12 0 2.32439e-28
37 1 0.001 -0.0224999 0 -0.024547 2.7719e-25 0 -3.29973e-12 0 2.63125e-28
186 2 0.001 -0.0174999 0 -0.0251846 2.7719e-25 0 1.83843e-12 0 2.32439e-28
187 2 0.001 -0.0174999 0 -0.024547 2.7719e-25 0 -3.29973e-12 0 2.63125e-28
336 3 0.001 -0.0125001 0 -0.0251846 -2.7719e-25 0 1.83843e-12 0 2.32439e-28
337 3 0.001 -0.0125001 0 -0.024547 -2.7719e-25 0 -3.29973e-12 0 2.63125e-28
486 4 0.001 -0.00750009 0 -0.0251846 -2.7719e-25 0 1.83843e-12 0 2.32439e-28
487 4 0.001 -0.00750009 0 -0.024547 -2.7719e-25 0 -3.29973e-12 0 2.63125e-28
636 5 0.001 -0.00250009 0 -0.0251846 -2.7719e-25 0 1.83843e-12 0 2.32439e-28
637 5 0.001 -0.00250009 0 -0.024547 -2.7719e-25 0 -3.29973e-12 0 2.63125e-28
786 6 0.001 0.00250009 0 -0.0251846 2.7719e-25 0 1.83843e-12 0 2.32439e-28
787 6 0.001 0.00250009 0 -0.024547 2.7719e-25 0 -3.29973e-12 0 2.63125e-28
936 7 0.001 0.00749991 0 -0.0251846 -2.7719e-25 0 1.83843e-12 0 2.32439e-28
937 7 0.001 0.00749991 0 -0.024547 -2.7719e-25 0 -3.29973e-12 0 2.63125e-28
1086 8 0.001 0.0125001 0 -0.0251846 2.7719e-25 0 1.83843e-12 0 2.32439e-28
1087 8 0.001 0.0125001 0 -0.024547 2.7719e-25 0 -3.29973e-12 0 2.63125e-28
1236 9 0.001 0.0174999 0 -0.0251846 -2.7719e-25 0 1.83843e-12 0 2.32439e-28
1237 9 0.001 0.0174999 0 -0.024547 -2.7719e-25 0 -3.29973e-12 0 2.63125e-28
1386 10 0.001 0.0224999 0 -0.0251846 -2.7719e-25 0 1.83843e-12 0 2.32439e-28
1387 10 0.001 0.0224999 0 -0.024547 -2.7719e-25 0 -3.29973e-12 0 2.63125e-28
38 1 0.001 -0.0224999 0 -0.0239094 2.7719e-25 0 -1.19212e-12 0 2.36579e-28
39 1 0.001 -0.0224999 0 -0.0232718 2.7719e-25 0 5.12012e-12 0 5.56227e-28
188 2 0.001 -0.0174999 0 -0.0239094 2.7719e-25 0 -1.19212e-12 0 2.36579e-28
189 2 0.001 -0.0174999 0 -0.0232718 2.7719e-25 0 5.12012e-12 0 5.56227e-28
338 3 0.001 -0.0125001 0 -0.0239094 -2.7719e-25 0 -1.19212e-12 0 2.36579e-28
339 3 0.001 -0.0125001 0 -0.0232718 -2.7719e-25 0 5.12012e-12 0 5.56227e-28
488 4 0.001 -0.00750009 0 -0.0239094 -2.7719e-25 0 -1.19212e-12 0 2.36579e-28
489 4 0.001 -0.00750009 0 -0.0232718 -2.7719e-25 0 5.12012e-12 0 5.56227e-28
638 5 0.001 -0.00250009 0 -0.0239094 -2.7719e-25 0 -1.19212e-12 0 2.36579e-28
639 5 0.001 -0.00250009 0 -0.0232718 -2.7719e-25 0 5.12012e-12 0 5.56227e-28
788 6 0.001 0.00250009 0 -0.0239094 2.7719e-25 0 -1.19212e-12 0 2.36579e-28
789 6 0.001 0.00250009 0 -0.0232718 2.7719e-25 0 5.12012e-12 0 5.56227e-28
938 7 0.001 0.00749991 0 -0.0239094 -2.7719e-25 0 -1.19212e-12 0 2.36579e-28
939 7 0.001 0.00749991 0 -0.0232718 -2.7719e-25 0 5.12012e-12 0 5.56227e-28
1088 8 0.001 0.0125001 0 -0.0239094 2.7719e-25 0 -1.19212e-12 0 2.36579e-28
1089 8 0.001 0.0125001 0 -0.0232718 2.7719e-25 0 5.12012e-12 0 5.56227e-28
1238 9 0.001 0.0174999 0 -0.0239094 -2.7719e-25 0 -1.19212e-12 0 2.36579e-28
1239 9 0.001 0.0174999 0 -0.0232718 -2.7719e-25 0 5.12012e-12 0 5.56227e-28
1388 10 0.001 0.0224999 0 -0.0239094 -2.7719e-25 0 -1.19212e-12 0 2.36579e-28
1389 10 0.001 0.0224999 0 -0.0232718 -2.7719e-25 0 5.12012e-12 0 5.56227e-28
40 1 0.001 -0.0224999 0 -0.0226342 2.7719e-25 0 -8.75528e-12 0 1.76149e-27