ITEM: TIMESTEP
900000
ITEM: NUMBER OF ATOMS
1500
ITEM: BOX BOUNDS ff ff ff
-2.5000000000000001e-02 2.5000000000000001e-02
-5.0000000000000001e-03 5.0000000000000001e-03
-5.0000000000000003e-02 5.0000000000000003e-02
ITEM: ATOMS id type radius x y z fx fy fz c_bendingE c_stretchingE
1 1 0.001 -0.0225 0 -0.0475 3.87754e-18 0 1.25127e-12 0 6.50427e-29
151 2 0.001 -0.0175 0 -0.0475 3.87754e-18 0 1.25127e-12 0 6.50427e-29
301 3 0.001 -0.0125 0 -0.0475 -3.87754e-18 0 1.25127e-12 0 6.50427e-29
451 4 0.001 -0.00750001 0 -0.0475 -3.87754e-18 0 1.25127e-12 0 6.50427e-29
601 5 0.001 -0.00250001 0 -0.0475 -3.87754e-18 0 1.25127e-12 0 6.50427e-29
751 6 0.001 0.00250001 0 -0.0475 3.87754e-18 0 1.25127e-12 0 6.50427e-29
901 7 0.001 0.00749999 0 -0.0475 -3.87754e-18 0 1.25127e-12 0 6.50427e-29
1051 8 0.001 0.0125 0 -0.0475 3.87754e-18 0 1.25127e-12 0 6.50427e-29
1201 9 0.001 0.0175 0 -0.0475 -3.87754e-18 0 1.25127e-12 0 6.50427e-29
1351 10 0.001 0.0225 0 -0.0475 -3.87754e-18 0 1.25127e-12 0 6.50427e-29
2 1 0.001 -0.0225 0 -0.0468624 3.87754e-18 0 -1.00258e-12 0 6.7612e-29
3 1 0.001 -0.0225 0 -0.0462248 3.87754e-18 0 -4.60016e-13 0 4.41578e-30
4 1 0.001 -0.0225 0 -0.0455872 3.87754e-18 0 -2.13101e-12 0 2.29575e-28
152 2 0.001 -0.0175 0 -0.0468624 3.87754e-18 0 -1.00258e-12 0 6.7612e-29
153 2 0.001 -0.0175 0 -0.0462248 3.87754e-18 0 -4.60016e-13 0 4.41578e-30
154 2 0.001 -0.0175 0 -0.0455872 3.87754e-18 0 -2.13101e-12 0 2.29575e-28
302 3 0.001 -0.0125 0 -0.0468624 -3.87754e-18 0 -1.00258e-12 0 6.7612e-29
303 3 0.001 -0.0125 0 -0.0462248 -3.87754e-18 0 -4.60016e-13 0 4.41578e-30
304 3 0.001 -0.0125 0 -0.0455872 -3.87754e-18 0 -2.13101e-12 0 2.29575e-28
452 4 0.001 -0.00750001 0 -0.0468624 -3.87754e-18 0 -1.00258e-12 0 6.7612e-29
453 4 0.001 -0.00750001 0 -0.0462248 -3.87754e-18 0 -4.60016e-13 0 4.41578e-30
454 4 0.001 -0.00750001 0 -0.0455872 -3.87754e-18 0 -2.13101e-12 0 2.29575e-28
602 5 0.001 -0.00250001 0 -0.0468624 -3.87754e-18 0 -1.00258e-12 0 6.7612e-29
603 5 0.001 -0.00250001 0 -0.0462248 -3.87754e-18 0 -4.60016e-13 0 4.41578e-30
604 5 0.001 -0.00250001 0 -0.0455872 -3.87754e-18 0 -2.13101e-12 0 2.29575e-28
752 6 0.001 0.00250001 0 -0.0468624 3.87754e-18 0 -1.00258e-12 0 6.7612e-29
753 6 0.001 0.00250001 0 -0.0462248 3.87754e-18 0 -4.60016e-13 0 4.41578e-30
754 6 0.001 0.00250001 0 -0.0455872 3.87754e-18 0 -2.13101e-12 0 2.29575e-28
902 7 0.001 0.00749999 0 -0.0468624 -3.87754e-18 0 -1.00258e-12 0 6.7612e-29
903 7 0.001 0.00749999 0 -0.0462248 -3.87754e-18 0 -4.60016e-13 0 4.41578e-30
904 7 0.001 0.00749999 0 -0.0455872 -3.87754e-18 0 -2.13101e-12 0 2.29575e-28
1052 8 0.001 0.0125 0 -0.0468624 3.87754e-18 0 -1.00258e-12 0 6.7612e-29
1053 8 0.001 0.0125 0 -0.0462248 3.87754e-18 0 -4.60016e-13 0 4.41578e-30
1054 8 0.001 0.0125 0 -0.0455872 3.87754e-18 0 -2.13101e-12 0 2.29575e-28
1202 9 0.001 0.0175 0 -0.0468624 -3.87754e-18 0 -1.00258e-12 0 6.7612e-29
1203 9 0.001 0.0175 0 -0.0462248 -3.87754e-18 0 -4.60016e-13 0 4.41578e-30
1204 9 0.001 0.0175 0 -0.0455872 -3.87754e-18 0 -2.13101e-12 0 2.29575e-28
1352 10 0.001 0.0225 0 -0.0468624 -3.87754e-18 0 -1.00258e-12 0 6.7612e-29
1353 10 0.001 0.0225 0 -0.0462248 -3.87754e-18 0 -4.60016e-13 0 4.41578e-30
1354 10 0.001 0.0225 0 -0.0455872 -3.87754e-18 0 -2.13101e-12 0 2.29575e-28
5 1 0.001 -0.0225 0 -0.0449497 3.87754e-18 0 4.93196e-12 0 5.05982e-28
6 1 0.001 -0.0225 0 -0.0443121 3.87754e-18 0 -1.88006e-12 0 2.9909e-28
155 2 0.001 -0.0175 0 -0.0449497 3.87754e-18 0 4.93196e-12 0 5.05982e-28
156 2 0.001 -0.0175 0 -0.0443121 3.87754e-18 0 -1.88006e-12 0 2.9909e-28
305 3 0.001 -0.0125 0 -0.0449497 -3.87754e-18 0 4.93196e-12 0 5.05982e-28
306 3 0.001 -0.0125 0 -0.0443121 -3.87754e-18 0 -1.88006e-12 0 2.9909e-28
455 4 0.001 -0.00750001 0 -0.0449497 -3.87754e-18 0 4.93196e-12 0 5.05982e-28
456 4 0.001 -0.00750001 0 -0.0443121 -3.87754e-18 0 -1.88006e-12 0 2.9909e-28
605 5 0.001 -0.00250001 0 -0.0449497 -3.87754e-18 0 4.93196e-12 0 5.05982e-28
606 5 0.001 -0.00250001 0 -0.0443121 -3.87754e-18 0 -1.88006e-12 0 2.9909e-28
755 6 0.001 0.00250001 0 -0.0449497 3.87754e-18 0 4.93196e-12 0 5.05982e-28
756 6 0.001 0.00250001 0 -0.0443121 3.87754e-18 0 -1.88006e-12 0 2.9909e-28
905 7 0.001 0.00749999 0 -0.0449497 -3.87754e-18 0 4.93196e-12 0 5.05982e-28
906 7 0.001 0.00749999 0 -0.0443121 -3.87754e-18 0 -1.88006e-12 0 2.9909e-28
1055 8 0.001 0.0125 0 -0.0449497 3.87754e-18 0 4.93196e-12 0 5.05982e-28
1056 8 0.001 0.0125 0 -0.0443121 3.87754e-18 0 -1.88006e-12 0 2.9909e-28
1205 9 0.001 0.0175 0 -0.0449497 -3.87754e-18 0 4.93196e-12 0 5.05982e-28
1206 9 0.001 0.0175 0 -0.0443121 -3.87754e-18 0 -1.88006e-12 0 2.9909e-28
1355 10 0.001 0.0225 0 -0.0449497 -3.87754e-18 0 4.93196e-12 0 5.05982e-28
1356 10 0.001 0.0225 0 -0.0443121 -3.87754e-18 0 -1.88006e-12 0 2.9909e-28
7 1 0.001 -0.0225 0 -0.0436745 3.87754e-18 0 -3.3022e-12 0 2.99932e-28
8 1 0.001 -0.0225 0 -0.0430369 3.87754e-18 0 3.59363e-12 0 3.20691e-28
157 2 0.001 -0.0175 0 -0.0436745 3.87754e-18 0 -3.3022e-12 0 2.99932e-28
158 2 0.001 -0.0175 0 -0.0430369 3.87754e-18 0 3.59363e-12 0 3.20691e-28
307 3 0.001 -0.0125 0 -0.0436745 -3.87754e-18 0 -3.3022e-12 0 2.99932e-28
308 3 0.001 -0.0125 0 -0.0430369 -3.87754e-18 0 3.59363e-12 0 3.20691e-28
457 4 0.001 -0.00750001 0 -0.0436745 -3.87754e-18 0 -3.3022e-12 0 2.99932e-28
458 4 0.001 -0.00750001 0 -0.0430369 -3.87754e-18 0 3.59363e-12 0 3.20691e-28
607 5 0.001 -0.00250001 0 -0.0436745 -3.87754e-18 0 -3.3022e-12 0 2.99932e-28
608 5 0.001 -0.00250001 0 -0.0430369 -3.87754e-18 0 3.59363e-12 0 3.20691e-28
757 6 0.001 0.00250001 0 -0.0436745 3.87754e-18 0 -3.3022e-12 0 2.99932e-28
758 6 0.001 0.00250001 0 -0.0430369 3.87754e-18 0 3.59363e-12 0 3.20691e-28
907 7 0.001 0.00749999 0 -0.0436745 -3.87754e-18 0 -3.3022e-12 0 2.99932e-28
908 7 0.001 0.00749999 0 -0.0430369 -3.87754e-18 0 3.59363e-12 0 3.20691e-28
1057 8 0.001 0.0125 0 -0.0436745 3.87754e-18 0 -3.3022e-12 0 2.99932e-28
1058 8 0.001 0.0125 0 -0.0430369 3.87754e-18 0 3.59363e-12 0 3.20691e-28
1207 9 0.001 0.0175 0 -0.0436745 -3.87754e-18 0 -3.3022e-12 0 2.99932e-28
1208 9 0.001 0.0175 0 -0.0430369 -3.87754e-18 0 3.59363e-12 0 3.20691e-28
1357 10 0.001 0.0225 0 -0.0436745 -3.87754e-18 0 -3.3022e-12 0 2.99932e-28
1358 10 0.001 0.0225 0 -0.0430369 -3.87754e-18 0 3.59363e-12 0 3.20691e-28
9 1 0.001 -0.0225 0 -0.0423993 3.87754e-18 0 1.79627e-12 0 3.66574e-28
10 1 0.001 -0.0225 0 -0.0417617 3.87754e-18 0 -6.7689e-12 0 9.79902e-28
11 1 0.001 -0.0225 0 -0.0411242 3.87754e-18 0 5.85109e-12 0 8.01422e-28
159 2 0.001 -0.0175 0 -0.0423993 3.87754e-18 0 1.79627e-12 0 3.66574e-28
160 2 0.001 -0.0175 0 -0.0417617 3.87754e-18 0 -6.7689e-12 0 9.79902e-28
161 2 0.001 -0.0175 0 -0.0411242 3.87754e-18 0 5.85109e-12 0 8.01422e-28
309 3 0.001 -0.0125 0 -0.0423993 -3.87754e-18 0 1.79627e-12 0 3.66574e-28
310 3 0.001 -0.0125 0 -0.0417617 -3.87754e-18 0 -6.7689e-12 0 9.79902e-28
311 3 0.001 -0.0125 0 -0.0411242 -3.87754e-18 0 5.85109e-12 0 8.01422e-28
459 4 0.001 -0.00750001 0 -0.0423993 -3.87754e-18 0 1.79627e-12 0 3.66574e-28
460 4 0.001 -0.00750001 0 -0.0417617 -3.87754e-18 0 -6.7689e-12 0 9.79902e-28
461 4 0.001 -0.00750001 0 -0.0411242 -3.87754e-18 0 5.85109e-12 0 8.01422e-28
609 5 0.001 -0.00250001 0 -0.0423993 -3.87754e-18 0 1.79627e-12 0 3.66574e-28
610 5 0.001 -0.00250001 0 -0.0417617 -3.87754e-18 0 -6.7689e-12 0 9.79902e-28
611 5 0.001 -0.00250001 0 -0.0411242 -3.87754e-18 0 5.85109e-12 0 8.01422e-28
759 6 0.001 0.00250001 0 -0.0423993 3.87754e-18 0 1.79627e-12 0 3.66574e-28
760 6 0.001 0.00250001 0 -0.0417617 3.87754e-18 0 -6.7689e-12 0 9.79902e-28
761 6 0.001 0.00250001 0 -0.0411242 3.87754e-18 0 5.85109e-12 0 8.01422e-28
909 7 0.001 0.00749999 0 -0.0423993 -3.87754e-18 0 1.79627e-12 0 3.66574e-28
910 7 0.001 0.00749999 0 -0.0417617 -3.87754e-18 0 -6.7689e-12 0 9.79902e-28
911 7 0.001 0.00749999 0 -0.0411242 -3.87754e-18 0 5.85109e-12 0 8.01422e-28
1059 8 0.001 0.0125 0 -0.0423993 3.87754e-18 0 1.79627e-12 0 3.66574e-28
1060 8 0.001 0.0125 0 -0.0417617 3.87754e-18 0 -6.7689e-12 0 9.79902e-28
1061 8 0.001 0.0125 0 -0.0411242 3.87754e-18 0 5.85109e-12 0 8.01422e-28
1209 9 0.001 0.0175 0 -0.0423993 -3.87754e-18 0 1.79627e-12 0 3.66574e-28
1210 9 0.001 0.0175 0 -0.0417617 -3.87754e-18 0 -6.7689e-12 0 9.79902e-28
1211 9 0.001 0.0175 0 -0.0411242 -3.87754e-18 0 5.85109e-12 0 8.01422e-28
1359 10 0.001 0.0225 0 -0.0423993 -3.87754e-18 0 1.79627e-12 0 3.66574e-28
1360 10 0.001 0.0225 0 -0.0417617 -3.87754e-18 0 -6.7689e-12 0 9.79902e-28
1361 10 0.001 0.0225 0 -0.0411242 -3.87754e-18 0 5.85109e-12 0 8.01422e-28
12 1 0.001 -0.0225 0 -0.0404866 3.87754e-18 0 -2.04913e-12 0 1.47686e-28
13 1 0.001 -0.0225 0 -0.039849 3.87754e-18 0 2.00703e-12 0 1.41241e-28
162 2 0.001 -0.0175 0 -0.0404866 3.87754e-18 0 -2.04913e-12 0 1.47686e-28
163 2 0.001 -0.0175 0 -0.039849 3.87754e-18 0 2.00703e-12 0 1.41241e-28
312 3 0.001 -0.0125 0 -0.0404866 -3.87754e-18 0 -2.04913e-12 0 1.47686e-28
313 3 0.001 -0.0125 0 -0.039849 -3.87754e-18 0 2.00703e-12 0 1.41241e-28
462 4 0.001 -0.00750001 0 -0.0404866 -3.87754e-18 0 -2.04913e-12 0 1.47686e-28
463 4 0.001 -0.00750001 0 -0.039849 -3.87754e-18 0 2.00703e-12 0 1.41241e-28
612 5 0.001 -0.00250001 0 -0.0404866 -3.87754e-18 0 -2.04913e-12 0 1.47686e-28
613 5 0.001 -0.00250001 0 -0.039849 -3.87754e-18 0 2.00703e-12 0 1.41241e-28
762 6 0.001 0.00250001 0 -0.0404866 3.87754e-18 0 -2.04913e-12 0 1.47686e-28
763 6 0.001 0.00250001 0 -0.039849 3.87754e-18 0 2.00703e-12 0 1.41241e-28
912 7 0.001 0.00749999 0 -0.0404866 -3.87754e-18 0 -2.04913e-12 0 1.47686e-28
913 7 0.001 0.00749999 0 -0.039849 -3.87754e-18 0 2.00703e-12 0 1.41241e-28
1062 8 0.001 0.0125 0 -0.0404866 3.87754e-18 0 -2.04913e-12 0 1.47686e-28
1063 8 0.001 0.0125 0 -0.039849 3.87754e-18 0 2.00703e-12 0 1.41241e-28
1212 9 0.001 0.0175 0 -0.0404866 -3.87754e-18 0 -2.04913e-12 0 1.47686e-28
1213 9 0.001 0.0175 0 -0.039849 -3.87754e-18 0 2.00703e-12 0 1.41241e-28
1362 10 0.001 0.0225 0 -0.0404866 -3.87754e-18 0 -2.04913e-12 0 1.47686e-28
1363 10 0.001 0.0225 0 -0.039849 -3.87754e-18 0 2.00703e-12 0 1.41241e-28
14 1 0.001 -0.0225 0 -0.0392114 3.87754e-18 0 -2.84167e-12 0 1.81974e-28
15 1 0.001 -0.0225 0 -0.0385738 3.87754e-18 0 7.50226e-13 0 4.45718e-29
16 1 0.001 -0.0225 0 -0.0379362 3.87754e-18 0 -1.71299e-12 0 1.63114e-28
164 2 0.001 -0.0175 0 -0.0392114 3.87754e-18 0 -2.84167e-12 0 1.81974e-28
165 2 0.001 -0.0175 0 -0.0385738 3.87754e-18 0 7.50226e-13 0 4.45718e-29
166 2 0.001 -0.0175 0 -0.0379362 3.87754e-18 0 -1.71299e-12 0 1.63114e-28
314 3 0.001 -0.0125 0 -0.0392114 -3.87754e-18 0 -2.84167e-12 0 1.81974e-28
315 3 0.001 -0.0125 0 -0.0385738 -3.87754e-18 0 7.50226e-13 0 4.45718e-29
316 3 0.001 -0.0125 0 -0.0379362 -3.87754e-18 0 -1.71299e-12 0 1.63114e-28
464 4 0.001 -0.00750001 0 -0.0392114 -3.87754e-18 0 -2.84167e-12 0 1.81974e-28
465 4 0.001 -0.00750001 0 -0.0385738 -3.87754e-18 0 7.50226e-13 0 4.45718e-29
466 4 0.001 -0.00750001 0 -0.0379362 -3.87754e-18 0 -1.71299e-12 0 1.63114e-28
614 5 0.001 -0.00250001 0 -0.0392114 -3.87754e-18 0 -2.84167e-12 0 1.81974e-28
615 5 0.001 -0.00250001 0 -0.0385738 -3.87754e-18 0 7.50226e-13 0 4.45718e-29
616 5 0.001 -0.00250001 0 -0.0379362 -3.87754e-18 0 -1.71299e-12 0 1.63114e-28
764 6 0.001 0.00250001 0 -0.0392114 3.87754e-18 0 -2.84167e-12 0 1.81974e-28
765 6 0.001 0.00250001 0 -0.0385738 3.87754e-18 0 7.50226e-13 0 4.45718e-29
766 6 0.001 0.00250001 0 -0.0379362 3.87754e-18 0 -1.71299e-12 0 1.63114e-28
914 7 0.001 0.00749999 0 -0.0392114 -3.87754e-18 0 -2.84167e-12 0 1.81974e-28
915 7 0.001 0.00749999 0 -0.0385738 -3.87754e-18 0 7.50226e-13 0 4.45718e-29
916 7 0.001 0.00749999 0 -0.0379362 -3.87754e-18 0 -1.71299e-12 0 1.63114e-28
1064 8 0.001 0.0125 0 -0.0392114 3.87754e-18 0 -2.84167e-12 0 1.81974e-28
1065 8 0.001 0.0125 0 -0.0385738 3.87754e-18 0 7.50226e-13 0 4.45718e-29
1066 8 0.001 0.0125 0 -0.0379362 3.87754e-18 0 -1.71299e-12 0 1.63114e-28
1214 9 0.001 0.0175 0 -0.0392114 -3.87754e-18 0 -2.84167e-12 0 1.81974e-28
1215 9 0.001 0.0175 0 -0.0385738 -3.87754e-18 0 7.50226e-13 0 4.45718e-29
1216 9 0.001 0.0175 0 -0.0379362 -3.87754e-18 0 -1.71299e-12 0 1.63114e-28
1364 10 0.001 0.0225 0 -0.0392114 -3.87754e-18 0 -2.84167e-12 0 1.81974e-28
1365 10 0.001 0.0225 0 -0.0385738 -3.87754e-18 0 7.50226e-13 0 4.45718e-29
1366 10 0.001 0.0225 0 -0.0379362 -3.87754e-18 0 -1.71299e-12 0 1.63114e-28
17 1 0.001 -0.0225 0 -0.0372987 3.87754e-18 0 6.31051e-12 0 9.43874e-28
18 1 0.001 -0.0225 0 -0.0366611 3.87754e-18 0 -6.35185e-12 0 9.50768e-28
167 2 0.001 -0.0175 0 -0.0372987 3.87754e-18 0 6.31051e-12 0 9.43874e-28
168 2 0.001 -0.0175 0 -0.0366611 3.87754e-18 0 -6.35185e-12 0 9.50768e-28
317 3 0.001 -0.0125 0 -0.0372987 -3.87754e-18 0 6.31051e-12 0 9.43874e-28
318 3 0.001 -0.0125 0 -0.0366611 -3.87754e-18 0 -6.35185e-12 0 9.50768e-28
467 4 0.001 -0.00750001 0 -0.0372987 -3.87754e-18 0 6.31051e-12 0 9.43874e-28
468 4 0.001 -0.00750001 0 -0.0366611 -3.87754e-18 0 -6.35185e-12 0 9.50768e-28
617 5 0.001 -0.00250001 0 -0.0372987 -3.87754e-18 0 6.31051e-12 0 9.43874e-28
618 5 0.001 -0.00250001 0 -0.0366611 -3.87754e-18 0 -6.35185e-12 0 9.50768e-28
767 6 0.001 0.00250001 0 -0.0372987 3.87754e-18 0 6.31051e-12 0 9.43874e-28
768 6 0.001 0.00250001 0 -0.0366611 3.87754e-18 0 -6.35185e-12 0 9.50768e-28
917 7 0.001 0.00749999 0 -0.0372987 -3.87754e-18 0 6.31051e-12 0 9.43874e-28
918 7 0.001 0.00749999 0 -0.0366611 -3.87754e-18 0 -6.35185e-12 0 9.50768e-28
1067 8 0.001 0.0125 0 -0.0372987 3.87754e-18 0 6.31051e-12 0 9.43874e-28
1068 8 0.001 0.0125 0 -0.0366611 3.87754e-18 0 -6.35185e-12 0 9.50768e-28
1217 9 0.001 0.0175 0 -0.0372987 -3.87754e-18 0 6.31051e-12 0 9.43874e-28
1218 9 0.001 0.0175 0 -0.0366611 -3.87754e-18 0 -6.35185e-12 0 9.50768e-28
1367 10 0.001 0.0225 0 -0.0372987 -3.87754e-18 0 6.31051e-12 0 9.43874e-28
1368 10 0.001 0.0225 0 -0.0366611 -3.87754e-18 0 -6.35185e-12 0 9.50768e-28
19 1 0.001 -0.0225 0 -0.0360235 3.87754e-18 0 -2.71502e-12 0 1.09383e-27
20 1 0.001 -0.0225 0 -0.0353859 3.87754e-18 0 7.27109e-12 0 1.19581e-27
169 2 0.001 -0.0175 0 -0.0360235 3.87754e-18 0 -2.71502e-12 0 1.09383e-27
170 2 0.001 -0.0175 0 -0.0353859 3.87754e-18 0 7.27109e-12 0 1.19581e-27
319 3 0.001 -0.0125 0 -0.0360235 -3.87754e-18 0 -2.71502e-12 0 1.09383e-27
320 3 0.001 -0.0125 0 -0.0353859 -3.87754e-18 0 7.27109e-12 0 1.19581e-27
469 4 0.001 -0.00750001 0 -0.0360235 -3.87754e-18 0 -2.71502e-12 0 1.09383e-27
470 4 0.001 -0.00750001 0 -0.0353859 -3.87754e-18 0 7.27109e-12 0 1.19581e-27
619 5 0.001 -0.00250001 0 -0.0360235 -3.87754e-18 0 -2.71502e-12 0 1.09383e-27
620 5 0.001 -0.00250001 0 -0.0353859 -3.87754e-18 0 7.27109e-12 0 1.19581e-27
769 6 0.001 0.00250001 0 -0.0360235 3.87754e-18 0 -2.71502e-12 0 1.09383e-27
770 6 0.001 0.00250001 0 -0.0353859 3.87754e-18 0 7.27109e-12 0 1.19581e-27
919 7 0.001 0.00749999 0 -0.0360235 -3.87754e-18 0 -2.71502e-12 0 1.09383e-27
920 7 0.001 0.00749999 0 -0.0353859 -3.87754e-18 0 7.27109e-12 0 1.19581e-27
1069 8 0.001 0.0125 0 -0.0360235 3.87754e-18 0 -2.71502e-12 0 1.09383e-27
1070 8 0.001 0.0125 0 -0.0353859 3.87754e-18 0 7.27109e-12 0 1.19581e-27
1219 9 0.001 0.0175 0 -0.0360235 -3.87754e-18 0 -2.71502e-12 0 1.09383e-27
1220 9 0.001 0.0175 0 -0.0353859 -3.87754e-18 0 7.27109e-12 0 1.19581e-27
1369 10 0.001 0.0225 0 -0.0360235 -3.87754e-18 0 -2.71502e-12 0 1.09383e-27
1370 10 0.001 0.0225 0 -0.0353859 -3.87754e-18 0 7.27109e-12 0 1.19581e-27
21 1 0.001 -0.0225 0 -0.0347483 3.87754e-18 0 -8.77057e-13 0 3.85065e-28
22 1 0.001 -0.0225 0 -0.0341107 3.87754e-18 0 4.22351e-14 0 2.37309e-28
23 1 0.001 -0.0225 0 -0.0334732 3.87754e-18 0 -5.51872e-12 0 7.22546e-28
171 2 0.001 -0.0175 0 -0.0347483 3.87754e-18 0 -8.77057e-13 0 3.85065e-28
172 2 0.001 -0.0175 0 -0.0341107 3.87754e-18 0 4.22351e-14 0 2.37309e-28
173 2 0.001 -0.0175 0 -0.0334732 3.87754e-18 0 -5.51872e-12 0 7.22546e-28
321 3 0.001 -0.0125 0 -0.0347483 -3.87754e-18 0 -8.77057e-13 0 3.85065e-28
322 3 0.001 -0.0125 0 -0.0341107 -3.87754e-18 0 4.22351e-14 0 2.37309e-28
323 3 0.001 -0.0125 0 -0.0334732 -3.87754e-18 0 -5.51872e-12 0 7.22546e-28
471 4 0.001 -0.00750001 0 -0.0347483 -3.87754e-18 0 -8.77057e-13 0 3.85065e-28
472 4 0.001 -0.00750001 0 -0.0341107 -3.87754e-18 0 4.22351e-14 0 2.37309e-28
473 4 0.001 -0.00750001 0 -0.0334732 -3.87754e-18 0 -5.51872e-12 0 7.22546e-28
621 5 0.001 -0.00250001 0 -0.0347483 -3.87754e-18 0 -8.77057e-13 0 3.85065e-28
622 5 0.001 -0.00250001 0 -0.0341107 -3.87754e-18 0 4.22351e-14 0 2.37309e-28
623 5 0.001 -0.00250001 0 -0.0334732 -3.87754e-18 0 -5.51872e-12 0 7.22546e-28
771 6 0.001 0.00250001 0 -0.0347483 3.87754e-18 0 -8.77057e-13 0 3.85065e-28
772 6 0.001 0.00250001 0 -0.0341107 3.87754e-18 0 4.22351e-14 0 2.37309e-28
773 6 0.001 0.00250001 0 -0.0334732 3.87754e-18 0 -5.51872e-12 0 7.22546e-28
921 7 0.001 0.00749999 0 -0.0347483 -3.87754e-18 0 -8.77057e-13 0 3.85065e-28
922 7 0.001 0.00749999 0 -0.0341107 -3.87754e-18 0 4.22351e-14 0 2.37309e-28
923 7 0.001 0.00749999 0 -0.0334732 -3.87754e-18 0 -5.51872e-12 0 7.22546e-28
1071 8 0.001 0.0125 0 -0.0347483 3.87754e-18 0 -8.77057e-13 0 3.85065e-28
1072 8 0.001 0.0125 0 -0.0341107 3.87754e-18 0 4.22351e-14 0 2.37309e-28
1073 8 0.001 0.0125 0 -0.0334732 3.87754e-18 0 -5.51872e-12 0 7.22546e-28
1221 9 0.001 0.0175 0 -0.0347483 -3.87754e-18 0 -8.77057e-13 0 3.85065e-28
1222 9 0.001 0.0175 0 -0.0341107 -3.87754e-18 0 4.22351e-14 0 2.37309e-28
1223 9 0.001 0.0175 0 -0.0334732 -3.87754e-18 0 -5.51872e-12 0 7.22546e-28
1371 10 0.001 0.0225 0 -0.0347483 -3.87754e-18 0 -8.77057e-13 0 3.85065e-28
1372 10 0.001 0.0225 0 -0.0341107 -3.87754e-18 0 4.22351e-14 0 2.37309e-28
1373 10 0.001 0.0225 0 -0.0334732 -3.87754e-18 0 -5.51872e-12 0 7.22546e-28
24 1 0.001 -0.0225 0 -0.0328356 3.87754e-18 0 2.96819e-12 0 6.30093e-28
25 1 0.001 -0.0225 0 -0.032198 3.87754e-18 0 4.80551e-12 0 6.82766e-28
174 2 0.001 -0.0175 0 -0.0328356 3.87754e-18 0 2.96819e-12 0 6.30093e-28
175 2 0.001 -0.0175 0 -0.032198 3.87754e-18 0 4.80551e-12 0 6.82766e-28
324 3 0.001 -0.0125 0 -0.0328356 -3.87754e-18 0 2.96819e-12 0 6.30093e-28
325 3 0.001 -0.0125 0 -0.032198 -3.87754e-18 0 4.80551e-12 0 6.82766e-28
474 4 0.001 -0.00750001 0 -0.0328356 -3.87754e-18 0 2.96819e-12 0 6.30093e-28
475 4 0.001 -0.00750001 0 -0.032198 -3.87754e-18 0 4.80551e-12 0 6.82766e-28
624 5 0.001 -0.00250001 0 -0.0328356 -3.87754e-18 0 2.96819e-12 0 6.30093e-28
625 5 0.001 -0.00250001 0 -0.032198 -3.87754e-18 0 4.80551e-12 0 6.82766e-28
774 6 0.001 0.00250001 0 -0.0328356 3.87754e-18 0 2.96819e-12 0 6.30093e-28
775 6 0.001 0.00250001 0 -0.032198 3.87754e-18 0 4.80551e-12 0 6.82766e-28
924 7 0.001 0.00749999 0 -0.0328356 -3.87754e-18 0 2.96819e-12 0 6.30093e-28
925 7 0.001 0.00749999 0 -0.032198 -3.87754e-18 0 4.80551e-12 0 6.82766e-28
1074 8 0.001 0.0125 0 -0.0328356 3.87754e-18 0 2.96819e-12 0 6.30093e-28
1075 8 0.001 0.0125 0 -0.032198 3.87754e-18 0 4.80551e-12 0 6.82766e-28
1224 9 0.001 0.0175 0 -0.0328356 -3.87754e-18 0 2.96819e-12 0 6.30093e-28
1225 9 0.001 0.0175 0 -0.032198 -3.87754e-18 0 4.80551e-12 0 6.82766e-28
1374 10 0.001 0.0225 0 -0.0328356 -3.87754e-18 0 2.96819e-12 0 6.30093e-28
1375 10 0.001 0.0225 0 -0.032198 -3.87754e-18 0 4.80551e-12 0 6.82766e-28
26 1 0.001 -0.0225 0 -0.0315604 3.87754e-18 0 -6.26916e-12 0 8.73306e-28
27 1 0.001 -0.0225 0 -0.0309228 3.87754e-18 0 -2.5052e-13 0 4.89847e-28
176 2 0.001 -0.0175 0 -0.0315604 3.87754e-18 0 -6.26916e-12 0 8.73306e-28
177 2 0.001 -0.0175 0 -0.0309228 3.87754e-18 0 -2.5052e-13 0 4.89847e-28
326 3 0.001 -0.0125 0 -0.0315604 -3.87754e-18 0 -6.26916e-12 0 8.73306e-28
327 3 0.001 -0.0125 0 -0.0309228 -3.87754e-18 0 -2.5052e-13 0 4.89847e-28
476 4 0.001 -0.00750001 0 -0.0315604 -3.87754e-18 0 -6.26916e-12 0 8.73306e-28
477 4 0.001 -0.00750001 0 -0.0309228 -3.87754e-18 0 -2.5052e-13 0 4.89847e-28
626 5 0.001 -0.00250001 0 -0.0315604 -3.87754e-18 0 -6.26916e-12 0 8.73306e-28
627 5 0.001 -0.00250001 0 -0.0309228 -3.87754e-18 0 -2.5052e-13 0 4.89847e-28
776 6 0.001 0.00250001 0 -0.0315604 3.87754e-18 0 -6.26916e-12 0 8.73306e-28
777 6 0.001 0.00250001 0 -0.0309228 3.87754e-18 0 -2.5052e-13 0 4.89847e-28
926 7 0.001 0.00749999 0 -0.0315604 -3.87754e-18 0 -6.26916e-12 0 8.73306e-28
927 7 0.001 0.00749999 0 -0.0309228 -3.87754e-18 0 -2.5052e-13 0 4.89847e-28
1076 8 0.001 0.0125 0 -0.0315604 3.87754e-18 0 -6.26916e-12 0 8.73306e-28
1077 8 0.001 0.0125 0 -0.0309228 3.87754e-18 0 -2.5052e-13 0 4.89847e-28
1226 9 0.001 0.0175 0 -0.0315604 -3.87754e-18 0 -6.26916e-12 0 8.73306e-28
1227 9 0.001 0.0175 0 -0.0309228 -3.87754e-18 0 -2.5052e-13 0 4.89847e-28
1376 10 0.001 0.0225 0 -0.0315604 -3.87754e-18 0 -6.26916e-12 0 8.73306e-28
1377 10 0.001 0.0225 0 -0.0309228 -3.87754e-18 0 -2.5052e-13 0 4.89847e-28
28 1 0.001 -0.0225 0 -0.0302852 3.87754e-18 0 5.18308e-12 0 5.57481e-28
29 1 0.001 -0.0225 0 -0.0296477 3.87754e-18 0 -3.71932e-12 0 3.36493e-28
30 1 0.001 -0.0225 0 -0.0290101 3.87754e-18 0 1.24998e-13 0 8.76911e-29
178 2 0.001 -0.0175 0 -0.0302852 3.87754e-18 0 5.18308e-12 0 5.57481e-28
179 2 0.001 -0.0175 0 -0.0296477 3.87754e-18 0 -3.71932e-12 0 3.36493e-28
180 2 0.001 -0.0175 0 -0.0290101 3.87754e-18 0 1.24998e-13 0 8.76911e-29
328 3 0.001 -0.0125 0 -0.0302852 -3.87754e-18 0 5.18308e-12 0 5.57481e-28
329 3 0.001 -0.0125 0 -0.0296477 -3.87754e-18 0 -3.71932e-12 0 3.36493e-28
330 3 0.001 -0.0125 0 -0.0290101 -3.87754e-18 0 1.24998e-13 0 8.76911e-29
478 4 0.001 -0.00750001 0 -0.0302852 -3.87754e-18 0 5.18308e-12 0 5.57481e-28
479 4 0.001 -0.00750001 0 -0.0296477 -3.87754e-18 0 -3.71932e-12 0 3.36493e-28
480 4 0.001 -0.00750001 0 -0.0290101 -3.87754e-18 0 1.24998e-13 0 8.76911e-29
628 5 0.001 -0.00250001 0 -0.0302852 -3.87754e-18 0 5.18308e-12 0 5.57481e-28
629 5 0.001 -0.00250001 0 -0.0296477 -3.87754e-18 0 -3.71932e-12 0 3.36493e-28
630 5 0.001 -0.00250001 0 -0.0290101 -3.87754e-18 0 1.24998e-13 0 8.76911e-29
778 6 0.001 0.00250001 0 -0.0302852 3.87754e-18 0 5.18308e-12 0 5.57481e-28
779 6 0.001 0.00250001 0 -0.0296477 3.87754e-18 0 -3.71932e-12 0 3.36493e-28
780 6 0.001 0.00250001 0 -0.0290101 3.87754e-18 0 1.24998e-13 0 8.76911e-29
928 7 0.001 0.00749999 0 -0.0302852 -3.87754e-18 0 5.18308e-12 0 5.57481e-28
929 7 0.001 0.00749999 0 -0.0296477 -3.87754e-18 0 -3.71932e-12 0 3.36493e-28
930 7 0.001 0.00749999 0 -0.0290101 -3.87754e-18 0 1.24998e-13 0 8.76911e-29
1078 8 0.001 0.0125 0 -0.0302852 3.87754e-18 0 5.18308e-12 0 5.57481e-28
1079 8 0.001 0.0125 0 -0.0296477 3.87754e-18 0 -3.71932e-12 0 3.36493e-28
1080 8 0.001 0.0125 0 -0.0290101 3.87754e-18 0 1.24998e-13 0 8.76911e-29
1228 9 0.001 0.0175 0 -0.0302852 -3.87754e-18 0 5.18308e-12 0 5.57481e-28
1229 9 0.001 0.0175 0 -0.0296477 -3.87754e-18 0 -3.71932e-12 0 3.36493e-28
1230 9 0.001 0.0175 0 -0.0290101 -3.87754e-18 0 1.24998e-13 0 8.76911e-29
1378 10 0.001 0.0225 0 -0.0302852 -3.87754e-18 0 5.18308e-12 0 5.57481e-28
1379 10 0.001 0.0225 0 -0.0296477 -3.87754e-18 0 -3.71932e-12 0 3.36493e-28
1380 10 0.001 0.0225 0 -0.0290101 -3.87754e-18 0 1.24998e-13 0 8.76911e-29
31 1 0.001 -0.0225 0 -0.0283725 3.87754e-18 0 3.40563e-12 0 2.86209e-28
32 1 0.001 -0.0225 0 -0.0277349 3.87754e-18 0 -2.52766e-12 0 2.48006e-28
181 2 0.001 -0.0175 0 -0.0283725 3.87754e-18 0 3.40563e-12 0 2.86209e-28
182 2 0.001 -0.0175 0 -0.0277349 3.87754e-18 0 -2.52766e-12 0 2.48006e-28
331 3 0.001 -0.0125 0 -0.0283725 -3.87754e-18 0 3.40563e-12 0 2.86209e-28
332 3 0.001 -0.0125 0 -0.0277349 -3.87754e-18 0 -2.52766e-12 0 2.48006e-28
481 4 0.001 -0.00750001 0 -0.0283725 -3.87754e-18 0 3.40563e-12 0 2.86209e-28
482 4 0.001 -0.00750001 0 -0.0277349 -3.87754e-18 0 -2.52766e-12 0 2.48006e-28
631 5 0.001 -0.00250001 0 -0.0283725 -3.87754e-18 0 3.40563e-12 0 2.86209e-28
632 5 0.001 -0.00250001 0 -0.0277349 -3.87754e-18 0 -2.52766e-12 0 2.48006e-28
781 6 0.001 0.00250001 0 -0.0283725 3.87754e-18 0 3.40563e-12 0 2.86209e-28
782 6 0.001 0.00250001 0 -0.0277349 3.87754e-18 0 -2.52766e-12 0 2.48006e-28
931 7 0.001 0.00749999 0 -0.0283725 -3.87754e-18 0 3.40563e-12 0 2.86209e-28
932 7 0.001 0.00749999 0 -0.0277349 -3.87754e-18 0 -2.52766e-12 0 2.48006e-28
1081 8 0.001 0.0125 0 -0.0283725 3.87754e-18 0 3.40563e-12 0 2.86209e-28
1082 8 0.001 0.0125 0 -0.0277349 3.87754e-18 0 -2.52766e-12 0 2.48006e-28
1231 9 0.001 0.0175 0 -0.0283725 -3.87754e-18 0 3.40563e-12 0 2.86209e-28
1232 9 0.001 0.0175 0 -0.0277349 -3.87754e-18 0 -2.52766e-12 0 2.48006e-28
1381 10 0.001 0.0225 0 -0.0283725 -3.87754e-18 0 3.40563e-12 0 2.86209e-28
1382 10 0.001 0.0225 0 -0.0277349 -3.87754e-18 0 -2.52766e-12 0 2.48006e-28
33 1 0.001 -0.0225 0 -0.0270973 3.87754e-18 0 -2.13233e-12 0 2.04306e-28
34 1 0.001 -0.0225 0 -0.0264597 3.87754e-18 0 2.36114e-12 0 2.04866e-28
35 1 0.001 -0.0225 0 -0.0258221 3.87754e-18 0 1.81866e-12 0 1.60689e-28
183 2 0.001 -0.0175 0 -0.0270973 3.87754e-18 0 -2.13233e-12 0 2.04306e-28
184 2 0.001 -0.0175 0 -0.0264597 3.87754e-18 0 2.36114e-12 0 2.04866e-28
185 2 0.001 -0.0175 0 -0.0258221 3.87754e-18 0 1.81866e-12 0 1.60689e-28
333 3 0.001 -0.0125 0 -0.0270973 -3.87754e-18 0 -2.13233e-12 0 2.04306e-28
334 3 0.001 -0.0125 0 -0.0264597 -3.87754e-18 0 2.36114e-12 0 2.04866e-28
335 3 0.001 -0.0125 0 -0.0258221 -3.87754e-18 0 1.81866e-12 0 1.60689e-28
483 4 0.001 -0.00750001 0 -0.0270973 -3.87754e-18 0 -2.13233e-12 0 2.04306e-28
484 4 0.001 -0.00750001 0 -0.0264597 -3.87754e-18 0 2.36114e-12 0 2.04866e-28
485 4 0.001 -0.00750001 0 -0.0258221 -3.87754e-18 0 1.81866e-12 0 1.60689e-28
633 5 0.001 -0.00250001 0 -0.0270973 -3.87754e-18 0 -2.13233e-12 0 2.04306e-28
634 5 0.001 -0.00250001 0 -0.0264597 -3.87754e-18 0 2.36114e-12 0 2.04866e-28
635 5 0.001 -0.00250001 0 -0.0258221 -3.87754e-18 0 1.81866e-12 0 1.60689e-28
783 6 0.001 0.00250001 0 -0.0270973 3.87754e-18 0 -2.13233e-12 0 2.04306e-28
784 6 0.001 0.00250001 0 -0.0264597 3.87754e-18 0 2.36114e-12 0 2.04866e-28
785 6 0.001 0.00250001 0 -0.0258221 3.87754e-18 0 1.81866e-12 0 1.60689e-28
933 7 0.001 0.00749999 0 -0.0270973 -3.87754e-18 0 -2.13233e-12 0 2.04306e-28
934 7 0.001 0.00749999 0 -0.0264597 -3.87754e-18 0 2.36114e-12 0 2.04866e-28
935 7 0.001 0.00749999 0 -0.0258221 -3.87754e-18 0 1.81866e-12 0 1.60689e-28
1083 8 0.001 0.0125 0 -0.0270973 3.87754e-18 0 -2.13233e-12 0 2.04306e-28
1084 8 0.001 0.0125 0 -0.0264597 3.87754e-18 0 2.36114e-12 0 2.04866e-28
1085 8 0.001 0.0125 0 -0.0258221 3.87754e-18 0 1.81866e-12 0 1.60689e-28
1233 9 0.001 0.0175 0 -0.0270973 -3.87754e-18 0 -2.13233e-12 0 2.04306e-28
1234 9 0.001 0.0175 0 -0.0264597 -3.87754e-18 0 2.36114e-12 0 2.04866e-28
1235 9 0.001 0.0175 0 -0.0258221 -3.87754e-18 0 1.81866e-12 0 1.60689e-28
1383 10 0.001 0.0225 0 -0.0270973 -3.87754e-18 0 -2.13233e-12 0 2.04306e-28
1384 10 0.001 0.0225 0 -0.0264597 -3.87754e-18 0 2.36114e-12 0 2.04866e-28
1385 10 0.001 0.0225 0 -0.0258221 -3.87754e-18 0 1.81866e-12 0 1.60689e-28
36 1 0.001 -0.0225 0 -0.0251846 3.87754e-18 0 -1.75534e-12 0 1.61603e-28
37 1 0.001 -0.0225 0 -0.024547 3.87754e-18 0 -7.93631e-13 0 1.60831e-29
186 2 0.001 -0.0175 0 -0.0251846 3.87754e-18 0 -1.75534e-12 0 1.61603e-28
187 2 0.001 -0.0175 0 -0.024547 3.87754e-18 0 -7.93631e-13 0 1.60831e-29
336 3 0.001 -0.0125 0 -0.0251846 -3.87754e-18 0 -1.75534e-12 0 1.61603e-28
337 3 0.001 -0.0125 0 -0.024547 -3.87754e-18 0 -7.93631e-13 0 1.60831e-29
486 4 0.001 -0.00750001 0 -0.0251846 -3.87754e-18 0 -1.75534e-12 0 1.61603e-28
487 4 0.001 -0.00750001 0 -0.024547 -3.87754e-18 0 -7.93631e-13 0 1.60831e-29
636 5 0.001 -0.00250001 0 -0.0251846 -3.87754e-18 0 -1.75534e-12 0 1.61603e-28
637 5 0.001 -0.00250001 0 -0.024547 -3.87754e-18 0 -7.93631e-13 0 1.60831e-29
786 6 0.001 0.00250001 0 -0.0251846 3.87754e-18 0 -1.75534e-12 0 1.61603e-28
787 6 0.001 0.00250001 0 -0.024547 3.87754e-18 0 -7.93631e-13 0 1.60831e-29
936 7 0.001 0.00749999 0 -0.0251846 -3.87754e-18 0 -1.75534e-12 0 1.61603e-28
937 7 0.001 0.00749999 0 -0.024547 -3.87754e-18 0 -7.93631e-13 0 1.60831e-29
1086 8 0.001 0.0125 0 -0.0251846 3.87754e-18 0 -1.75534e-12 0 1.61603e-28
1087 8 0.001 0.0125 0 -0.024547 3.87754e-18 0 -7.93631e-13 0 1.60831e-29
1236 9 0.001 0.0175 0 -0.0251846 -3.87754e-18 0 -1.75534e-12 0 1.61603e-28
1237 9 0.001 0.0175 0 -0.024547 -3.87754e-18 0 -7.93631e-13 0 1.60831e-29
1386 10 0.001 0.0225 0 -0.0251846 -3.87754e-18 0 -1.75534e-12 0 1.61603e-28
1387 10 0.001 0.0225 0 -0.024547 -3.87754e-18 0 -7.93631e-13 0 1.60831e-29
38 1 0.001 -0.0225 0 -0.0239094 3.87754e-18 0 -8.98986e-13 0 1.05909e-28
39 1 0.001 -0.0225 0 -0.0232718 3.87754e-18 0 3.51041e-12 0 2.61804e-28
188 2 0.001 -0.0175 0 -0.0239094 3.87754e-18 0 -8.98986e-13 0 1.05909e-28
189 2 0.001 -0.0175 0 -0.0232718 3.87754e-18 0 3.51041e-12 0 2.61804e-28
338 3 0.001 -0.0125 0 -0.0239094 -3.87754e-18 0 -8.98986e-13 0 1.05909e-28
339 3 0.001 -0.0125 0 -0.0232718 -3.87754e-18 0 3.51041e-12 0 2.61804e-28
488 4 0.001 -0.00750001 0 -0.0239094 -3.87754e-18 0 -8.98986e-13 0 1.05909e-28
489 4 0.001 -0.00750001 0 -0.0232718 -3.87754e-18 0 3.51041e-12 0 2.61804e-28
638 5 0.001 -0.00250001 0 -0.0239094 -3.87754e-18 0 -8.98986e-13 0 1.05909e-28
639 5 0.001 -0.00250001 0 -0.0232718 -3.87754e-18 0 3.51041e-12 0 2.61804e-28
788 6 0.001 0.00250001 0 -0.0239094 3.87754e-18 0 -8.98986e-13 0 1.05909e-28
789 6 0.001 0.00250001 0 -0.0232718 3.87754e-18 0 3.51041e-12 0 2.61804e-28
938 7 0.001 0.00749999 0 -0.0239094 -3.87754e-18 0 -8.98986e-13 0 1.05909e-28
939 7 0.001 0.00749999 0 -0.0232718 -3.87754e-18 0 3.51041e-12 0 2.61804e-28
1088 8 0.001 0.0125 0 -0.0239094 3.87754e-18 0 -8.98986e-13 0 1.05909e-28
1089 8 0.001 0.0125 0 -0.0232718 3.87754e-18 0 3.51041e-12 0 2.61804e-28
1238 9 0.001 0.0175 0 -0.0239094 -3.87754e-18 0 -8.98986e-13 0 1.05909e-28
1239 9 0.001 0.0175 0 -0.0232718 -3.87754e-18 0 3.51041e-12 0 2.61804e-28
1388 10 0.001 0.0225 0 -0.0239094 -3.87754e-18 0 -8.98986e-13 0 1.05909e-28
1389 10 0.001 0.0225 0 -0.0232718 -3.87754e-18 0 3.51041e-12 0 2.61804e-28
40 1 0.001 -0.0225 0 -0.0226342 3.87754e-18 0 -2.3612e-12 0 1.74894e-28
41 1 0.001 -0.0225 0 -0.0219966 3.87754e-18 0 1.48361e-12 0 5.93327e-29
42 1 0.001 -0.0225 0 -0.0213591 3.87754e-18 0 -4.07511e-12 0 4.10345e-28
190 2 0.001 -0.0175 0 -0.0226342 3.87754e-18 0 -2.3612e-12 0 1.74894e-28
191 2 0.001 -0.0175 0 -0.0219966 3.87754e-18 0 1.48361e-12 0 5.93327e-29