ITEM: TIMESTEP
9300000
ITEM: NUMBER OF ATOMS
1500
ITEM: BOX BOUNDS ff ff ff
-2.5000000000000001e-02 2.5000000000000001e-02
-5.0000000000000001e-03 5.0000000000000001e-03
-5.0000000000000003e-02 5.0000000000000003e-02
ITEM: ATOMS id type radius x y z fx fy fz c_bendingE c_stretchingE
1 1 0.001 -0.0224999 0 -0.0475 2.7719e-25 0 5.97414e-12 0 1.4815e-27
151 2 0.001 -0.0174999 0 -0.0475 2.7719e-25 0 5.97414e-12 0 1.4815e-27
301 3 0.001 -0.0125001 0 -0.0475 -2.7719e-25 0 5.97414e-12 0 1.4815e-27
451 4 0.001 -0.0075001 0 -0.0475 -2.7719e-25 0 5.97414e-12 0 1.4815e-27
601 5 0.001 -0.0025001 0 -0.0475 -2.7719e-25 0 5.97414e-12 0 1.4815e-27
751 6 0.001 0.0025001 0 -0.0475 2.7719e-25 0 5.97414e-12 0 1.4815e-27
901 7 0.001 0.0074999 0 -0.0475 -2.7719e-25 0 5.97414e-12 0 1.4815e-27
1051 8 0.001 0.0125001 0 -0.0475 2.7719e-25 0 5.97414e-12 0 1.4815e-27
1201 9 0.001 0.0174999 0 -0.0475 -2.7719e-25 0 5.97414e-12 0 1.4815e-27
1351 10 0.001 0.0224999 0 -0.0475 -2.7719e-25 0 5.97414e-12 0 1.4815e-27
2 1 0.001 -0.0224999 0 -0.0468624 2.7719e-25 0 -1.03218e-11 0 2.26632e-27
3 1 0.001 -0.0224999 0 -0.0462248 2.7719e-25 0 7.52254e-12 0 1.20305e-27
4 1 0.001 -0.0224999 0 -0.0455872 2.7719e-25 0 -5.76826e-12 0 6.97317e-28
152 2 0.001 -0.0174999 0 -0.0468624 2.7719e-25 0 -1.03218e-11 0 2.26632e-27
153 2 0.001 -0.0174999 0 -0.0462248 2.7719e-25 0 7.52254e-12 0 1.20305e-27
154 2 0.001 -0.0174999 0 -0.0455872 2.7719e-25 0 -5.76826e-12 0 6.97317e-28
302 3 0.001 -0.0125001 0 -0.0468624 -2.7719e-25 0 -1.03218e-11 0 2.26632e-27
303 3 0.001 -0.0125001 0 -0.0462248 -2.7719e-25 0 7.52254e-12 0 1.20305e-27
304 3 0.001 -0.0125001 0 -0.0455872 -2.7719e-25 0 -5.76826e-12 0 6.97317e-28
452 4 0.001 -0.0075001 0 -0.0468624 -2.7719e-25 0 -1.03218e-11 0 2.26632e-27
453 4 0.001 -0.0075001 0 -0.0462248 -2.7719e-25 0 7.52254e-12 0 1.20305e-27
454 4 0.001 -0.0075001 0 -0.0455872 -2.7719e-25 0 -5.76826e-12 0 6.97317e-28
602 5 0.001 -0.0025001 0 -0.0468624 -2.7719e-25 0 -1.03218e-11 0 2.26632e-27
603 5 0.001 -0.0025001 0 -0.0462248 -2.7719e-25 0 7.52254e-12 0 1.20305e-27
604 5 0.001 -0.0025001 0 -0.0455872 -2.7719e-25 0 -5.76826e-12 0 6.97317e-28
752 6 0.001 0.0025001 0 -0.0468624 2.7719e-25 0 -1.03218e-11 0 2.26632e-27
753 6 0.001 0.0025001 0 -0.0462248 2.7719e-25 0 7.52254e-12 0 1.20305e-27
754 6 0.001 0.0025001 0 -0.0455872 2.7719e-25 0 -5.76826e-12 0 6.97317e-28
902 7 0.001 0.0074999 0 -0.0468624 -2.7719e-25 0 -1.03218e-11 0 2.26632e-27
903 7 0.001 0.0074999 0 -0.0462248 -2.7719e-25 0 7.52254e-12 0 1.20305e-27
904 7 0.001 0.0074999 0 -0.0455872 -2.7719e-25 0 -5.76826e-12 0 6.97317e-28
1052 8 0.001 0.0125001 0 -0.0468624 2.7719e-25 0 -1.03218e-11 0 2.26632e-27
1053 8 0.001 0.0125001 0 -0.0462248 2.7719e-25 0 7.52254e-12 0 1.20305e-27
1054 8 0.001 0.0125001 0 -0.0455872 2.7719e-25 0 -5.76826e-12 0 6.97317e-28
1202 9 0.001 0.0174999 0 -0.0468624 -2.7719e-25 0 -1.03218e-11 0 2.26632e-27
1203 9 0.001 0.0174999 0 -0.0462248 -2.7719e-25 0 7.52254e-12 0 1.20305e-27
1204 9 0.001 0.0174999 0 -0.0455872 -2.7719e-25 0 -5.76826e-12 0 6.97317e-28
1352 10 0.001 0.0224999 0 -0.0468624 -2.7719e-25 0 -1.03218e-11 0 2.26632e-27
1353 10 0.001 0.0224999 0 -0.0462248 -2.7719e-25 0 7.52254e-12 0 1.20305e-27
1354 10 0.001 0.0224999 0 -0.0455872 -2.7719e-25 0 -5.76826e-12 0 6.97317e-28
5 1 0.001 -0.0224999 0 -0.0449497 2.7719e-25 0 1.12918e-12 0 3.68142e-28
6 1 0.001 -0.0224999 0 -0.0443121 2.7719e-25 0 4.13689e-12 0 3.85555e-28
155 2 0.001 -0.0174999 0 -0.0449497 2.7719e-25 0 1.12918e-12 0 3.68142e-28
156 2 0.001 -0.0174999 0 -0.0443121 2.7719e-25 0 4.13689e-12 0 3.85555e-28
305 3 0.001 -0.0125001 0 -0.0449497 -2.7719e-25 0 1.12918e-12 0 3.68142e-28
306 3 0.001 -0.0125001 0 -0.0443121 -2.7719e-25 0 4.13689e-12 0 3.85555e-28
455 4 0.001 -0.0075001 0 -0.0449497 -2.7719e-25 0 1.12918e-12 0 3.68142e-28
456 4 0.001 -0.0075001 0 -0.0443121 -2.7719e-25 0 4.13689e-12 0 3.85555e-28
605 5 0.001 -0.0025001 0 -0.0449497 -2.7719e-25 0 1.12918e-12 0 3.68142e-28
606 5 0.001 -0.0025001 0 -0.0443121 -2.7719e-25 0 4.13689e-12 0 3.85555e-28
755 6 0.001 0.0025001 0 -0.0449497 2.7719e-25 0 1.12918e-12 0 3.68142e-28
756 6 0.001 0.0025001 0 -0.0443121 2.7719e-25 0 4.13689e-12 0 3.85555e-28
905 7 0.001 0.0074999 0 -0.0449497 -2.7719e-25 0 1.12918e-12 0 3.68142e-28
906 7 0.001 0.0074999 0 -0.0443121 -2.7719e-25 0 4.13689e-12 0 3.85555e-28
1055 8 0.001 0.0125001 0 -0.0449497 2.7719e-25 0 1.12918e-12 0 3.68142e-28
1056 8 0.001 0.0125001 0 -0.0443121 2.7719e-25 0 4.13689e-12 0 3.85555e-28
1205 9 0.001 0.0174999 0 -0.0449497 -2.7719e-25 0 1.12918e-12 0 3.68142e-28
1206 9 0.001 0.0174999 0 -0.0443121 -2.7719e-25 0 4.13689e-12 0 3.85555e-28
1355 10 0.001 0.0224999 0 -0.0449497 -2.7719e-25 0 1.12918e-12 0 3.68142e-28
1356 10 0.001 0.0224999 0 -0.0443121 -2.7719e-25 0 4.13689e-12 0 3.85555e-28
7 1 0.001 -0.0224999 0 -0.0436745 2.7719e-25 0 -4.76507e-12 0 4.78089e-28
8 1 0.001 -0.0224999 0 -0.0430369 2.7719e-25 0 2.2163e-12 0 1.82212e-28
157 2 0.001 -0.0174999 0 -0.0436745 2.7719e-25 0 -4.76507e-12 0 4.78089e-28
158 2 0.001 -0.0174999 0 -0.0430369 2.7719e-25 0 2.2163e-12 0 1.82212e-28
307 3 0.001 -0.0125001 0 -0.0436745 -2.7719e-25 0 -4.76507e-12 0 4.78089e-28
308 3 0.001 -0.0125001 0 -0.0430369 -2.7719e-25 0 2.2163e-12 0 1.82212e-28
457 4 0.001 -0.0075001 0 -0.0436745 -2.7719e-25 0 -4.76507e-12 0 4.78089e-28
458 4 0.001 -0.0075001 0 -0.0430369 -2.7719e-25 0 2.2163e-12 0 1.82212e-28
607 5 0.001 -0.0025001 0 -0.0436745 -2.7719e-25 0 -4.76507e-12 0 4.78089e-28
608 5 0.001 -0.0025001 0 -0.0430369 -2.7719e-25 0 2.2163e-12 0 1.82212e-28
757 6 0.001 0.0025001 0 -0.0436745 2.7719e-25 0 -4.76507e-12 0 4.78089e-28
758 6 0.001 0.0025001 0 -0.0430369 2.7719e-25 0 2.2163e-12 0 1.82212e-28
907 7 0.001 0.0074999 0 -0.0436745 -2.7719e-25 0 -4.76507e-12 0 4.78089e-28
908 7 0.001 0.0074999 0 -0.0430369 -2.7719e-25 0 2.2163e-12 0 1.82212e-28
1057 8 0.001 0.0125001 0 -0.0436745 2.7719e-25 0 -4.76507e-12 0 4.78089e-28
1058 8 0.001 0.0125001 0 -0.0430369 2.7719e-25 0 2.2163e-12 0 1.82212e-28
1207 9 0.001 0.0174999 0 -0.0436745 -2.7719e-25 0 -4.76507e-12 0 4.78089e-28
1208 9 0.001 0.0174999 0 -0.0430369 -2.7719e-25 0 2.2163e-12 0 1.82212e-28
1357 10 0.001 0.0224999 0 -0.0436745 -2.7719e-25 0 -4.76507e-12 0 4.78089e-28
1358 10 0.001 0.0224999 0 -0.0430369 -2.7719e-25 0 2.2163e-12 0 1.82212e-28
9 1 0.001 -0.0224999 0 -0.0423993 2.7719e-25 0 -7.53133e-13 0 1.7046e-29
10 1 0.001 -0.0224999 0 -0.0417617 2.7719e-25 0 2.38157e-12 0 1.44011e-28
11 1 0.001 -0.0224999 0 -0.0411242 2.7719e-25 0 -2.46473e-12 0 1.48665e-28
159 2 0.001 -0.0174999 0 -0.0423993 2.7719e-25 0 -7.53133e-13 0 1.7046e-29
160 2 0.001 -0.0174999 0 -0.0417617 2.7719e-25 0 2.38157e-12 0 1.44011e-28
161 2 0.001 -0.0174999 0 -0.0411242 2.7719e-25 0 -2.46473e-12 0 1.48665e-28
309 3 0.001 -0.0125001 0 -0.0423993 -2.7719e-25 0 -7.53133e-13 0 1.7046e-29
310 3 0.001 -0.0125001 0 -0.0417617 -2.7719e-25 0 2.38157e-12 0 1.44011e-28
311 3 0.001 -0.0125001 0 -0.0411242 -2.7719e-25 0 -2.46473e-12 0 1.48665e-28
459 4 0.001 -0.0075001 0 -0.0423993 -2.7719e-25 0 -7.53133e-13 0 1.7046e-29
460 4 0.001 -0.0075001 0 -0.0417617 -2.7719e-25 0 2.38157e-12 0 1.44011e-28
461 4 0.001 -0.0075001 0 -0.0411242 -2.7719e-25 0 -2.46473e-12 0 1.48665e-28
609 5 0.001 -0.0025001 0 -0.0423993 -2.7719e-25 0 -7.53133e-13 0 1.7046e-29
610 5 0.001 -0.0025001 0 -0.0417617 -2.7719e-25 0 2.38157e-12 0 1.44011e-28
611 5 0.001 -0.0025001 0 -0.0411242 -2.7719e-25 0 -2.46473e-12 0 1.48665e-28
759 6 0.001 0.0025001 0 -0.0423993 2.7719e-25 0 -7.53133e-13 0 1.7046e-29
760 6 0.001 0.0025001 0 -0.0417617 2.7719e-25 0 2.38157e-12 0 1.44011e-28
761 6 0.001 0.0025001 0 -0.0411242 2.7719e-25 0 -2.46473e-12 0 1.48665e-28
909 7 0.001 0.0074999 0 -0.0423993 -2.7719e-25 0 -7.53133e-13 0 1.7046e-29
910 7 0.001 0.0074999 0 -0.0417617 -2.7719e-25 0 2.38157e-12 0 1.44011e-28
911 7 0.001 0.0074999 0 -0.0411242 -2.7719e-25 0 -2.46473e-12 0 1.48665e-28
1059 8 0.001 0.0125001 0 -0.0423993 2.7719e-25 0 -7.53133e-13 0 1.7046e-29
1060 8 0.001 0.0125001 0 -0.0417617 2.7719e-25 0 2.38157e-12 0 1.44011e-28
1061 8 0.001 0.0125001 0 -0.0411242 2.7719e-25 0 -2.46473e-12 0 1.48665e-28
1209 9 0.001 0.0174999 0 -0.0423993 -2.7719e-25 0 -7.53133e-13 0 1.7046e-29
1210 9 0.001 0.0174999 0 -0.0417617 -2.7719e-25 0 2.38157e-12 0 1.44011e-28
1211 9 0.001 0.0174999 0 -0.0411242 -2.7719e-25 0 -2.46473e-12 0 1.48665e-28
1359 10 0.001 0.0224999 0 -0.0423993 -2.7719e-25 0 -7.53133e-13 0 1.7046e-29
1360 10 0.001 0.0224999 0 -0.0417617 -2.7719e-25 0 2.38157e-12 0 1.44011e-28
1361 10 0.001 0.0224999 0 -0.0411242 -2.7719e-25 0 -2.46473e-12 0 1.48665e-28
12 1 0.001 -0.0224999 0 -0.0404866 2.7719e-25 0 2.21367e-12 0 1.14777e-28
13 1 0.001 -0.0224999 0 -0.039849 2.7719e-25 0 -2.96535e-12 0 1.82756e-28
162 2 0.001 -0.0174999 0 -0.0404866 2.7719e-25 0 2.21367e-12 0 1.14777e-28
163 2 0.001 -0.0174999 0 -0.039849 2.7719e-25 0 -2.96535e-12 0 1.82756e-28
312 3 0.001 -0.0125001 0 -0.0404866 -2.7719e-25 0 2.21367e-12 0 1.14777e-28
313 3 0.001 -0.0125001 0 -0.039849 -2.7719e-25 0 -2.96535e-12 0 1.82756e-28
462 4 0.001 -0.0075001 0 -0.0404866 -2.7719e-25 0 2.21367e-12 0 1.14777e-28
463 4 0.001 -0.0075001 0 -0.039849 -2.7719e-25 0 -2.96535e-12 0 1.82756e-28
612 5 0.001 -0.0025001 0 -0.0404866 -2.7719e-25 0 2.21367e-12 0 1.14777e-28
613 5 0.001 -0.0025001 0 -0.039849 -2.7719e-25 0 -2.96535e-12 0 1.82756e-28
762 6 0.001 0.0025001 0 -0.0404866 2.7719e-25 0 2.21367e-12 0 1.14777e-28
763 6 0.001 0.0025001 0 -0.039849 2.7719e-25 0 -2.96535e-12 0 1.82756e-28
912 7 0.001 0.0074999 0 -0.0404866 -2.7719e-25 0 2.21367e-12 0 1.14777e-28
913 7 0.001 0.0074999 0 -0.039849 -2.7719e-25 0 -2.96535e-12 0 1.82756e-28
1062 8 0.001 0.0125001 0 -0.0404866 2.7719e-25 0 2.21367e-12 0 1.14777e-28
1063 8 0.001 0.0125001 0 -0.039849 2.7719e-25 0 -2.96535e-12 0 1.82756e-28
1212 9 0.001 0.0174999 0 -0.0404866 -2.7719e-25 0 2.21367e-12 0 1.14777e-28
1213 9 0.001 0.0174999 0 -0.039849 -2.7719e-25 0 -2.96535e-12 0 1.82756e-28
1362 10 0.001 0.0224999 0 -0.0404866 -2.7719e-25 0 2.21367e-12 0 1.14777e-28
1363 10 0.001 0.0224999 0 -0.039849 -2.7719e-25 0 -2.96535e-12 0 1.82756e-28
14 1 0.001 -0.0224999 0 -0.0392114 2.7719e-25 0 9.59803e-13 0 9.95669e-29
15 1 0.001 -0.0224999 0 -0.0385738 2.7719e-25 0 2.9282e-13 0 1.23677e-29
16 1 0.001 -0.0224999 0 -0.0379362 2.7719e-25 0 6.01916e-12 0 1.4016e-27
164 2 0.001 -0.0174999 0 -0.0392114 2.7719e-25 0 9.59803e-13 0 9.95669e-29
165 2 0.001 -0.0174999 0 -0.0385738 2.7719e-25 0 2.9282e-13 0 1.23677e-29
166 2 0.001 -0.0174999 0 -0.0379362 2.7719e-25 0 6.01916e-12 0 1.4016e-27
314 3 0.001 -0.0125001 0 -0.0392114 -2.7719e-25 0 9.59803e-13 0 9.95669e-29
315 3 0.001 -0.0125001 0 -0.0385738 -2.7719e-25 0 2.9282e-13 0 1.23677e-29
316 3 0.001 -0.0125001 0 -0.0379362 -2.7719e-25 0 6.01916e-12 0 1.4016e-27
464 4 0.001 -0.0075001 0 -0.0392114 -2.7719e-25 0 9.59803e-13 0 9.95669e-29
465 4 0.001 -0.0075001 0 -0.0385738 -2.7719e-25 0 2.9282e-13 0 1.23677e-29
466 4 0.001 -0.0075001 0 -0.0379362 -2.7719e-25 0 6.01916e-12 0 1.4016e-27
614 5 0.001 -0.0025001 0 -0.0392114 -2.7719e-25 0 9.59803e-13 0 9.95669e-29
615 5 0.001 -0.0025001 0 -0.0385738 -2.7719e-25 0 2.9282e-13 0 1.23677e-29
616 5 0.001 -0.0025001 0 -0.0379362 -2.7719e-25 0 6.01916e-12 0 1.4016e-27
764 6 0.001 0.0025001 0 -0.0392114 2.7719e-25 0 9.59803e-13 0 9.95669e-29
765 6 0.001 0.0025001 0 -0.0385738 2.7719e-25 0 2.9282e-13 0 1.23677e-29
766 6 0.001 0.0025001 0 -0.0379362 2.7719e-25 0 6.01916e-12 0 1.4016e-27
914 7 0.001 0.0074999 0 -0.0392114 -2.7719e-25 0 9.59803e-13 0 9.95669e-29
915 7 0.001 0.0074999 0 -0.0385738 -2.7719e-25 0 2.9282e-13 0 1.23677e-29
916 7 0.001 0.0074999 0 -0.0379362 -2.7719e-25 0 6.01916e-12 0 1.4016e-27
1064 8 0.001 0.0125001 0 -0.0392114 2.7719e-25 0 9.59803e-13 0 9.95669e-29
1065 8 0.001 0.0125001 0 -0.0385738 2.7719e-25 0 2.9282e-13 0 1.23677e-29
1066 8 0.001 0.0125001 0 -0.0379362 2.7719e-25 0 6.01916e-12 0 1.4016e-27
1214 9 0.001 0.0174999 0 -0.0392114 -2.7719e-25 0 9.59803e-13 0 9.95669e-29
1215 9 0.001 0.0174999 0 -0.0385738 -2.7719e-25 0 2.9282e-13 0 1.23677e-29
1216 9 0.001 0.0174999 0 -0.0379362 -2.7719e-25 0 6.01916e-12 0 1.4016e-27
1364 10 0.001 0.0224999 0 -0.0392114 -2.7719e-25 0 9.59803e-13 0 9.95669e-29
1365 10 0.001 0.0224999 0 -0.0385738 -2.7719e-25 0 2.9282e-13 0 1.23677e-29
1366 10 0.001 0.0224999 0 -0.0379362 -2.7719e-25 0 6.01916e-12 0 1.4016e-27
17 1 0.001 -0.0224999 0 -0.0372987 2.7719e-25 0 -7.23021e-12 0 1.48379e-27
18 1 0.001 -0.0224999 0 -0.0366611 2.7719e-25 0 5.42284e-13 0 1.1615e-28
167 2 0.001 -0.0174999 0 -0.0372987 2.7719e-25 0 -7.23021e-12 0 1.48379e-27
168 2 0.001 -0.0174999 0 -0.0366611 2.7719e-25 0 5.42284e-13 0 1.1615e-28
317 3 0.001 -0.0125001 0 -0.0372987 -2.7719e-25 0 -7.23021e-12 0 1.48379e-27
318 3 0.001 -0.0125001 0 -0.0366611 -2.7719e-25 0 5.42284e-13 0 1.1615e-28
467 4 0.001 -0.0075001 0 -0.0372987 -2.7719e-25 0 -7.23021e-12 0 1.48379e-27
468 4 0.001 -0.0075001 0 -0.0366611 -2.7719e-25 0 5.42284e-13 0 1.1615e-28
617 5 0.001 -0.0025001 0 -0.0372987 -2.7719e-25 0 -7.23021e-12 0 1.48379e-27
618 5 0.001 -0.0025001 0 -0.0366611 -2.7719e-25 0 5.42284e-13 0 1.1615e-28
767 6 0.001 0.0025001 0 -0.0372987 2.7719e-25 0 -7.23021e-12 0 1.48379e-27
768 6 0.001 0.0025001 0 -0.0366611 2.7719e-25 0 5.42284e-13 0 1.1615e-28
917 7 0.001 0.0074999 0 -0.0372987 -2.7719e-25 0 -7.23021e-12 0 1.48379e-27
918 7 0.001 0.0074999 0 -0.0366611 -2.7719e-25 0 5.42284e-13 0 1.1615e-28
1067 8 0.001 0.0125001 0 -0.0372987 2.7719e-25 0 -7.23021e-12 0 1.48379e-27
1068 8 0.001 0.0125001 0 -0.0366611 2.7719e-25 0 5.42284e-13 0 1.1615e-28
1217 9 0.001 0.0174999 0 -0.0372987 -2.7719e-25 0 -7.23021e-12 0 1.48379e-27
1218 9 0.001 0.0174999 0 -0.0366611 -2.7719e-25 0 5.42284e-13 0 1.1615e-28
1367 10 0.001 0.0224999 0 -0.0372987 -2.7719e-25 0 -7.23021e-12 0 1.48379e-27
1368 10 0.001 0.0224999 0 -0.0366611 -2.7719e-25 0 5.42284e-13 0 1.1615e-28
19 1 0.001 -0.0224999 0 -0.0360235 2.7719e-25 0 -8.30701e-14 0 7.06205e-29
20 1 0.001 -0.0224999 0 -0.0353859 2.7719e-25 0 -1.3368e-12 0 2.58181e-28
169 2 0.001 -0.0174999 0 -0.0360235 2.7719e-25 0 -8.30701e-14 0 7.06205e-29
170 2 0.001 -0.0174999 0 -0.0353859 2.7719e-25 0 -1.3368e-12 0 2.58181e-28
319 3 0.001 -0.0125001 0 -0.0360235 -2.7719e-25 0 -8.30701e-14 0 7.06205e-29
320 3 0.001 -0.0125001 0 -0.0353859 -2.7719e-25 0 -1.3368e-12 0 2.58181e-28
469 4 0.001 -0.0075001 0 -0.0360235 -2.7719e-25 0 -8.30701e-14 0 7.06205e-29
470 4 0.001 -0.0075001 0 -0.0353859 -2.7719e-25 0 -1.3368e-12 0 2.58181e-28
619 5 0.001 -0.0025001 0 -0.0360235 -2.7719e-25 0 -8.30701e-14 0 7.06205e-29
620 5 0.001 -0.0025001 0 -0.0353859 -2.7719e-25 0 -1.3368e-12 0 2.58181e-28
769 6 0.001 0.0025001 0 -0.0360235 2.7719e-25 0 -8.30701e-14 0 7.06205e-29
770 6 0.001 0.0025001 0 -0.0353859 2.7719e-25 0 -1.3368e-12 0 2.58181e-28
919 7 0.001 0.0074999 0 -0.0360235 -2.7719e-25 0 -8.30701e-14 0 7.06205e-29
920 7 0.001 0.0074999 0 -0.0353859 -2.7719e-25 0 -1.3368e-12 0 2.58181e-28
1069 8 0.001 0.0125001 0 -0.0360235 2.7719e-25 0 -8.30701e-14 0 7.06205e-29
1070 8 0.001 0.0125001 0 -0.0353859 2.7719e-25 0 -1.3368e-12 0 2.58181e-28
1219 9 0.001 0.0174999 0 -0.0360235 -2.7719e-25 0 -8.30701e-14 0 7.06205e-29
1220 9 0.001 0.0174999 0 -0.0353859 -2.7719e-25 0 -1.3368e-12 0 2.58181e-28
1369 10 0.001 0.0224999 0 -0.0360235 -2.7719e-25 0 -8.30701e-14 0 7.06205e-29
1370 10 0.001 0.0224999 0 -0.0353859 -2.7719e-25 0 -1.3368e-12 0 2.58181e-28
21 1 0.001 -0.0224999 0 -0.0347483 2.7719e-25 0 3.50957e-12 0 2.80447e-28
22 1 0.001 -0.0224999 0 -0.0341107 2.7719e-25 0 -3.21793e-12 0 2.2813e-28
23 1 0.001 -0.0224999 0 -0.0334732 2.7719e-25 0 7.31445e-12 0 1.33578e-27
171 2 0.001 -0.0174999 0 -0.0347483 2.7719e-25 0 3.50957e-12 0 2.80447e-28
172 2 0.001 -0.0174999 0 -0.0341107 2.7719e-25 0 -3.21793e-12 0 2.2813e-28
173 2 0.001 -0.0174999 0 -0.0334732 2.7719e-25 0 7.31445e-12 0 1.33578e-27
321 3 0.001 -0.0125001 0 -0.0347483 -2.7719e-25 0 3.50957e-12 0 2.80447e-28
322 3 0.001 -0.0125001 0 -0.0341107 -2.7719e-25 0 -3.21793e-12 0 2.2813e-28
323 3 0.001 -0.0125001 0 -0.0334732 -2.7719e-25 0 7.31445e-12 0 1.33578e-27
471 4 0.001 -0.0075001 0 -0.0347483 -2.7719e-25 0 3.50957e-12 0 2.80447e-28
472 4 0.001 -0.0075001 0 -0.0341107 -2.7719e-25 0 -3.21793e-12 0 2.2813e-28
473 4 0.001 -0.0075001 0 -0.0334732 -2.7719e-25 0 7.31445e-12 0 1.33578e-27
621 5 0.001 -0.0025001 0 -0.0347483 -2.7719e-25 0 3.50957e-12 0 2.80447e-28
622 5 0.001 -0.0025001 0 -0.0341107 -2.7719e-25 0 -3.21793e-12 0 2.2813e-28
623 5 0.001 -0.0025001 0 -0.0334732 -2.7719e-25 0 7.31445e-12 0 1.33578e-27
771 6 0.001 0.0025001 0 -0.0347483 2.7719e-25 0 3.50957e-12 0 2.80447e-28
772 6 0.001 0.0025001 0 -0.0341107 2.7719e-25 0 -3.21793e-12 0 2.2813e-28
773 6 0.001 0.0025001 0 -0.0334732 2.7719e-25 0 7.31445e-12 0 1.33578e-27
921 7 0.001 0.0074999 0 -0.0347483 -2.7719e-25 0 3.50957e-12 0 2.80447e-28
922 7 0.001 0.0074999 0 -0.0341107 -2.7719e-25 0 -3.21793e-12 0 2.2813e-28
923 7 0.001 0.0074999 0 -0.0334732 -2.7719e-25 0 7.31445e-12 0 1.33578e-27
1071 8 0.001 0.0125001 0 -0.0347483 2.7719e-25 0 3.50957e-12 0 2.80447e-28
1072 8 0.001 0.0125001 0 -0.0341107 2.7719e-25 0 -3.21793e-12 0 2.2813e-28
1073 8 0.001 0.0125001 0 -0.0334732 2.7719e-25 0 7.31445e-12 0 1.33578e-27
1221 9 0.001 0.0174999 0 -0.0347483 -2.7719e-25 0 3.50957e-12 0 2.80447e-28
1222 9 0.001 0.0174999 0 -0.0341107 -2.7719e-25 0 -3.21793e-12 0 2.2813e-28
1223 9 0.001 0.0174999 0 -0.0334732 -2.7719e-25 0 7.31445e-12 0 1.33578e-27
1371 10 0.001 0.0224999 0 -0.0347483 -2.7719e-25 0 3.50957e-12 0 2.80447e-28
1372 10 0.001 0.0224999 0 -0.0341107 -2.7719e-25 0 -3.21793e-12 0 2.2813e-28
1373 10 0.001 0.0224999 0 -0.0334732 -2.7719e-25 0 7.31445e-12 0 1.33578e-27
24 1 0.001 -0.0224999 0 -0.0328356 2.7719e-25 0 -6.89512e-12 0 1.27337e-27
25 1 0.001 -0.0224999 0 -0.032198 2.7719e-25 0 1.4199e-12 0 1.0613e-28
174 2 0.001 -0.0174999 0 -0.0328356 2.7719e-25 0 -6.89512e-12 0 1.27337e-27
175 2 0.001 -0.0174999 0 -0.032198 2.7719e-25 0 1.4199e-12 0 1.0613e-28
324 3 0.001 -0.0125001 0 -0.0328356 -2.7719e-25 0 -6.89512e-12 0 1.27337e-27
325 3 0.001 -0.0125001 0 -0.032198 -2.7719e-25 0 1.4199e-12 0 1.0613e-28
474 4 0.001 -0.0075001 0 -0.0328356 -2.7719e-25 0 -6.89512e-12 0 1.27337e-27
475 4 0.001 -0.0075001 0 -0.032198 -2.7719e-25 0 1.4199e-12 0 1.0613e-28
624 5 0.001 -0.0025001 0 -0.0328356 -2.7719e-25 0 -6.89512e-12 0 1.27337e-27
625 5 0.001 -0.0025001 0 -0.032198 -2.7719e-25 0 1.4199e-12 0 1.0613e-28
774 6 0.001 0.0025001 0 -0.0328356 2.7719e-25 0 -6.89512e-12 0 1.27337e-27
775 6 0.001 0.0025001 0 -0.032198 2.7719e-25 0 1.4199e-12 0 1.0613e-28
924 7 0.001 0.0074999 0 -0.0328356 -2.7719e-25 0 -6.89512e-12 0 1.27337e-27
925 7 0.001 0.0074999 0 -0.032198 -2.7719e-25 0 1.4199e-12 0 1.0613e-28
1074 8 0.001 0.0125001 0 -0.0328356 2.7719e-25 0 -6.89512e-12 0 1.27337e-27
1075 8 0.001 0.0125001 0 -0.032198 2.7719e-25 0 1.4199e-12 0 1.0613e-28
1224 9 0.001 0.0174999 0 -0.0328356 -2.7719e-25 0 -6.89512e-12 0 1.27337e-27
1225 9 0.001 0.0174999 0 -0.032198 -2.7719e-25 0 1.4199e-12 0 1.0613e-28
1374 10 0.001 0.0224999 0 -0.0328356 -2.7719e-25 0 -6.89512e-12 0 1.27337e-27
1375 10 0.001 0.0224999 0 -0.032198 -2.7719e-25 0 1.4199e-12 0 1.0613e-28
26 1 0.001 -0.0224999 0 -0.0315604 2.7719e-25 0 3.35297e-13 0 2.32019e-30
27 1 0.001 -0.0224999 0 -0.0309228 2.7719e-25 0 -2.96733e-12 0 3.27023e-28
176 2 0.001 -0.0174999 0 -0.0315604 2.7719e-25 0 3.35297e-13 0 2.32019e-30
177 2 0.001 -0.0174999 0 -0.0309228 2.7719e-25 0 -2.96733e-12 0 3.27023e-28
326 3 0.001 -0.0125001 0 -0.0315604 -2.7719e-25 0 3.35297e-13 0 2.32019e-30
327 3 0.001 -0.0125001 0 -0.0309228 -2.7719e-25 0 -2.96733e-12 0 3.27023e-28
476 4 0.001 -0.0075001 0 -0.0315604 -2.7719e-25 0 3.35297e-13 0 2.32019e-30
477 4 0.001 -0.0075001 0 -0.0309228 -2.7719e-25 0 -2.96733e-12 0 3.27023e-28
626 5 0.001 -0.0025001 0 -0.0315604 -2.7719e-25 0 3.35297e-13 0 2.32019e-30
627 5 0.001 -0.0025001 0 -0.0309228 -2.7719e-25 0 -2.96733e-12 0 3.27023e-28
776 6 0.001 0.0025001 0 -0.0315604 2.7719e-25 0 3.35297e-13 0 2.32019e-30
777 6 0.001 0.0025001 0 -0.0309228 2.7719e-25 0 -2.96733e-12 0 3.27023e-28
926 7 0.001 0.0074999 0 -0.0315604 -2.7719e-25 0 3.35297e-13 0 2.32019e-30
927 7 0.001 0.0074999 0 -0.0309228 -2.7719e-25 0 -2.96733e-12 0 3.27023e-28
1076 8 0.001 0.0125001 0 -0.0315604 2.7719e-25 0 3.35297e-13 0 2.32019e-30
1077 8 0.001 0.0125001 0 -0.0309228 2.7719e-25 0 -2.96733e-12 0 3.27023e-28
1226 9 0.001 0.0174999 0 -0.0315604 -2.7719e-25 0 3.35297e-13 0 2.32019e-30
1227 9 0.001 0.0174999 0 -0.0309228 -2.7719e-25 0 -2.96733e-12 0 3.27023e-28
1376 10 0.001 0.0224999 0 -0.0315604 -2.7719e-25 0 3.35297e-13 0 2.32019e-30
1377 10 0.001 0.0224999 0 -0.0309228 -2.7719e-25 0 -2.96733e-12 0 3.27023e-28
28 1 0.001 -0.0224999 0 -0.0302852 2.7719e-25 0 3.11233e-12 0 3.29917e-28
29 1 0.001 -0.0224999 0 -0.0296477 2.7719e-25 0 5.42414e-13 0 3.43544e-29
30 1 0.001 -0.0224999 0 -0.0290101 2.7719e-25 0 1.10833e-12 0 1.90152e-28
178 2 0.001 -0.0174999 0 -0.0302852 2.7719e-25 0 3.11233e-12 0 3.29917e-28
179 2 0.001 -0.0174999 0 -0.0296477 2.7719e-25 0 5.42414e-13 0 3.43544e-29
180 2 0.001 -0.0174999 0 -0.0290101 2.7719e-25 0 1.10833e-12 0 1.90152e-28
328 3 0.001 -0.0125001 0 -0.0302852 -2.7719e-25 0 3.11233e-12 0 3.29917e-28
329 3 0.001 -0.0125001 0 -0.0296477 -2.7719e-25 0 5.42414e-13 0 3.43544e-29
330 3 0.001 -0.0125001 0 -0.0290101 -2.7719e-25 0 1.10833e-12 0 1.90152e-28
478 4 0.001 -0.0075001 0 -0.0302852 -2.7719e-25 0 3.11233e-12 0 3.29917e-28
479 4 0.001 -0.0075001 0 -0.0296477 -2.7719e-25 0 5.42414e-13 0 3.43544e-29
480 4 0.001 -0.0075001 0 -0.0290101 -2.7719e-25 0 1.10833e-12 0 1.90152e-28
628 5 0.001 -0.0025001 0 -0.0302852 -2.7719e-25 0 3.11233e-12 0 3.29917e-28
629 5 0.001 -0.0025001 0 -0.0296477 -2.7719e-25 0 5.42414e-13 0 3.43544e-29
630 5 0.001 -0.0025001 0 -0.0290101 -2.7719e-25 0 1.10833e-12 0 1.90152e-28
778 6 0.001 0.0025001 0 -0.0302852 2.7719e-25 0 3.11233e-12 0 3.29917e-28
779 6 0.001 0.0025001 0 -0.0296477 2.7719e-25 0 5.42414e-13 0 3.43544e-29
780 6 0.001 0.0025001 0 -0.0290101 2.7719e-25 0 1.10833e-12 0 1.90152e-28
928 7 0.001 0.0074999 0 -0.0302852 -2.7719e-25 0 3.11233e-12 0 3.29917e-28
929 7 0.001 0.0074999 0 -0.0296477 -2.7719e-25 0 5.42414e-13 0 3.43544e-29
930 7 0.001 0.0074999 0 -0.0290101 -2.7719e-25 0 1.10833e-12 0 1.90152e-28
1078 8 0.001 0.0125001 0 -0.0302852 2.7719e-25 0 3.11233e-12 0 3.29917e-28
1079 8 0.001 0.0125001 0 -0.0296477 2.7719e-25 0 5.42414e-13 0 3.43544e-29
1080 8 0.001 0.0125001 0 -0.0290101 2.7719e-25 0 1.10833e-12 0 1.90152e-28
1228 9 0.001 0.0174999 0 -0.0302852 -2.7719e-25 0 3.11233e-12 0 3.29917e-28
1229 9 0.001 0.0174999 0 -0.0296477 -2.7719e-25 0 5.42414e-13 0 3.43544e-29
1230 9 0.001 0.0174999 0 -0.0290101 -2.7719e-25 0 1.10833e-12 0 1.90152e-28
1378 10 0.001 0.0224999 0 -0.0302852 -2.7719e-25 0 3.11233e-12 0 3.29917e-28
1379 10 0.001 0.0224999 0 -0.0296477 -2.7719e-25 0 5.42414e-13 0 3.43544e-29
1380 10 0.001 0.0224999 0 -0.0290101 -2.7719e-25 0 1.10833e-12 0 1.90152e-28
31 1 0.001 -0.0224999 0 -0.0283725 2.7719e-25 0 -1.81838e-12 0 1.60689e-28
32 1 0.001 -0.0224999 0 -0.0277349 2.7719e-25 0 -3.97034e-13 0 3.51524e-30
181 2 0.001 -0.0174999 0 -0.0283725 2.7719e-25 0 -1.81838e-12 0 1.60689e-28
182 2 0.001 -0.0174999 0 -0.0277349 2.7719e-25 0 -3.97034e-13 0 3.51524e-30
331 3 0.001 -0.0125001 0 -0.0283725 -2.7719e-25 0 -1.81838e-12 0 1.60689e-28
332 3 0.001 -0.0125001 0 -0.0277349 -2.7719e-25 0 -3.97034e-13 0 3.51524e-30
481 4 0.001 -0.0075001 0 -0.0283725 -2.7719e-25 0 -1.81838e-12 0 1.60689e-28
482 4 0.001 -0.0075001 0 -0.0277349 -2.7719e-25 0 -3.97034e-13 0 3.51524e-30
631 5 0.001 -0.0025001 0 -0.0283725 -2.7719e-25 0 -1.81838e-12 0 1.60689e-28
632 5 0.001 -0.0025001 0 -0.0277349 -2.7719e-25 0 -3.97034e-13 0 3.51524e-30
781 6 0.001 0.0025001 0 -0.0283725 2.7719e-25 0 -1.81838e-12 0 1.60689e-28
782 6 0.001 0.0025001 0 -0.0277349 2.7719e-25 0 -3.97034e-13 0 3.51524e-30
931 7 0.001 0.0074999 0 -0.0283725 -2.7719e-25 0 -1.81838e-12 0 1.60689e-28
932 7 0.001 0.0074999 0 -0.0277349 -2.7719e-25 0 -3.97034e-13 0 3.51524e-30
1081 8 0.001 0.0125001 0 -0.0283725 2.7719e-25 0 -1.81838e-12 0 1.60689e-28
1082 8 0.001 0.0125001 0 -0.0277349 2.7719e-25 0 -3.97034e-13 0 3.51524e-30
1231 9 0.001 0.0174999 0 -0.0283725 -2.7719e-25 0 -1.81838e-12 0 1.60689e-28
1232 9 0.001 0.0174999 0 -0.0277349 -2.7719e-25 0 -3.97034e-13 0 3.51524e-30
1381 10 0.001 0.0224999 0 -0.0283725 -2.7719e-25 0 -1.81838e-12 0 1.60689e-28
1382 10 0.001 0.0224999 0 -0.0277349 -2.7719e-25 0 -3.97034e-13 0 3.51524e-30
33 1 0.001 -0.0224999 0 -0.0270973 2.7719e-25 0 -1.54638e-12 0 1.36988e-28
34 1 0.001 -0.0224999 0 -0.0264597 2.7719e-25 0 7.53385e-13 0 1.79818e-28
35 1 0.001 -0.0224999 0 -0.0258221 2.7719e-25 0 3.12286e-13 0 6.78011e-29
183 2 0.001 -0.0174999 0 -0.0270973 2.7719e-25 0 -1.54638e-12 0 1.36988e-28
184 2 0.001 -0.0174999 0 -0.0264597 2.7719e-25 0 7.53385e-13 0 1.79818e-28
185 2 0.001 -0.0174999 0 -0.0258221 2.7719e-25 0 3.12286e-13 0 6.78011e-29
333 3 0.001 -0.0125001 0 -0.0270973 -2.7719e-25 0 -1.54638e-12 0 1.36988e-28
334 3 0.001 -0.0125001 0 -0.0264597 -2.7719e-25 0 7.53385e-13 0 1.79818e-28
335 3 0.001 -0.0125001 0 -0.0258221 -2.7719e-25 0 3.12286e-13 0 6.78011e-29
483 4 0.001 -0.0075001 0 -0.0270973 -2.7719e-25 0 -1.54638e-12 0 1.36988e-28
484 4 0.001 -0.0075001 0 -0.0264597 -2.7719e-25 0 7.53385e-13 0 1.79818e-28
485 4 0.001 -0.0075001 0 -0.0258221 -2.7719e-25 0 3.12286e-13 0 6.78011e-29
633 5 0.001 -0.0025001 0 -0.0270973 -2.7719e-25 0 -1.54638e-12 0 1.36988e-28
634 5 0.001 -0.0025001 0 -0.0264597 -2.7719e-25 0 7.53385e-13 0 1.79818e-28
635 5 0.001 -0.0025001 0 -0.0258221 -2.7719e-25 0 3.12286e-13 0 6.78011e-29
783 6 0.001 0.0025001 0 -0.0270973 2.7719e-25 0 -1.54638e-12 0 1.36988e-28
784 6 0.001 0.0025001 0 -0.0264597 2.7719e-25 0 7.53385e-13 0 1.79818e-28
785 6 0.001 0.0025001 0 -0.0258221 2.7719e-25 0 3.12286e-13 0 6.78011e-29
933 7 0.001 0.0074999 0 -0.0270973 -2.7719e-25 0 -1.54638e-12 0 1.36988e-28
934 7 0.001 0.0074999 0 -0.0264597 -2.7719e-25 0 7.53385e-13 0 1.79818e-28
935 7 0.001 0.0074999 0 -0.0258221 -2.7719e-25 0 3.12286e-13 0 6.78011e-29
1083 8 0.001 0.0125001 0 -0.0270973 2.7719e-25 0 -1.54638e-12 0 1.36988e-28
1084 8 0.001 0.0125001 0 -0.0264597 2.7719e-25 0 7.53385e-13 0 1.79818e-28
1085 8 0.001 0.0125001 0 -0.0258221 2.7719e-25 0 3.12286e-13 0 6.78011e-29
1233 9 0.001 0.0174999 0 -0.0270973 -2.7719e-25 0 -1.54638e-12 0 1.36988e-28
1234 9 0.001 0.0174999 0 -0.0264597 -2.7719e-25 0 7.53385e-13 0 1.79818e-28
1235 9 0.001 0.0174999 0 -0.0258221 -2.7719e-25 0 3.12286e-13 0 6.78011e-29
1383 10 0.001 0.0224999 0 -0.0270973 -2.7719e-25 0 -1.54638e-12 0 1.36988e-28
1384 10 0.001 0.0224999 0 -0.0264597 -2.7719e-25 0 7.53385e-13 0 1.79818e-28
1385 10 0.001 0.0224999 0 -0.0258221 -2.7719e-25 0 3.12286e-13 0 6.78011e-29
36 1 0.001 -0.0224999 0 -0.0251846 2.7719e-25 0 3.90933e-12 0 4.40542e-28
37 1 0.001 -0.0224999 0 -0.024547 2.7719e-25 0 -2.09031e-12 0 4.67052e-28
186 2 0.001 -0.0174999 0 -0.0251846 2.7719e-25 0 3.90933e-12 0 4.40542e-28
187 2 0.001 -0.0174999 0 -0.024547 2.7719e-25 0 -2.09031e-12 0 4.67052e-28
336 3 0.001 -0.0125001 0 -0.0251846 -2.7719e-25 0 3.90933e-12 0 4.40542e-28
337 3 0.001 -0.0125001 0 -0.024547 -2.7719e-25 0 -2.09031e-12 0 4.67052e-28
486 4 0.001 -0.0075001 0 -0.0251846 -2.7719e-25 0 3.90933e-12 0 4.40542e-28
487 4 0.001 -0.0075001 0 -0.024547 -2.7719e-25 0 -2.09031e-12 0 4.67052e-28
636 5 0.001 -0.0025001 0 -0.0251846 -2.7719e-25 0 3.90933e-12 0 4.40542e-28
637 5 0.001 -0.0025001 0 -0.024547 -2.7719e-25 0 -2.09031e-12 0 4.67052e-28
786 6 0.001 0.0025001 0 -0.0251846 2.7719e-25 0 3.90933e-12 0 4.40542e-28
787 6 0.001 0.0025001 0 -0.024547 2.7719e-25 0 -2.09031e-12 0 4.67052e-28
936 7 0.001 0.0074999 0 -0.0251846 -2.7719e-25 0 3.90933e-12 0 4.40542e-28
937 7 0.001 0.0074999 0 -0.024547 -2.7719e-25 0 -2.09031e-12 0 4.67052e-28
1086 8 0.001 0.0125001 0 -0.0251846 2.7719e-25 0 3.90933e-12 0 4.40542e-28
1087 8 0.001 0.0125001 0 -0.024547 2.7719e-25 0 -2.09031e-12 0 4.67052e-28
1236 9 0.001 0.0174999 0 -0.0251846 -2.7719e-25 0 3.90933e-12 0 4.40542e-28
1237 9 0.001 0.0174999 0 -0.024547 -2.7719e-25 0 -2.09031e-12 0 4.67052e-28
1386 10 0.001 0.0224999 0 -0.0251846 -2.7719e-25 0 3.90933e-12 0 4.40542e-28
1387 10 0.001 0.0224999 0 -0.024547 -2.7719e-25 0 -2.09031e-12 0 4.67052e-28
38 1 0.001 -0.0224999 0 -0.0239094 2.7719e-25 0 -4.42878e-12 0 5.13349e-28
39 1 0.001 -0.0224999 0 -0.0232718 2.7719e-25 0 6.05888e-12 0 7.70373e-28
188 2 0.001 -0.0174999 0 -0.0239094 2.7719e-25 0 -4.42878e-12 0 5.13349e-28
189 2 0.001 -0.0174999 0 -0.0232718 2.7719e-25 0 6.05888e-12 0 7.70373e-28
338 3 0.001 -0.0125001 0 -0.0239094 -2.7719e-25 0 -4.42878e-12 0 5.13349e-28
339 3 0.001 -0.0125001 0 -0.0232718 -2.7719e-25 0 6.05888e-12 0 7.70373e-28
488 4 0.001 -0.0075001 0 -0.0239094 -2.7719e-25 0 -4.42878e-12 0 5.13349e-28
489 4 0.001 -0.0075001 0 -0.0232718 -2.7719e-25 0 6.05888e-12 0 7.70373e-28
638 5 0.001 -0.0025001 0 -0.0239094 -2.7719e-25 0 -4.42878e-12 0 5.13349e-28
639 5 0.001 -0.0025001 0 -0.0232718 -2.7719e-25 0 6.05888e-12 0 7.70373e-28
788 6 0.001 0.0025001 0 -0.0239094 2.7719e-25 0 -4.42878e-12 0 5.13349e-28
789 6 0.001 0.0025001 0 -0.0232718 2.7719e-25 0 6.05888e-12 0 7.70373e-28
938 7 0.001 0.0074999 0 -0.0239094 -2.7719e-25 0 -4.42878e-12 0 5.13349e-28
939 7 0.001 0.0074999 0 -0.0232718 -2.7719e-25 0 6.05888e-12 0 7.70373e-28
1088 8 0.001 0.0125001 0 -0.0239094 2.7719e-25 0 -4.42878e-12 0 5.13349e-28
1089 8 0.001 0.0125001 0 -0.0232718 2.7719e-25 0 6.05888e-12 0 7.70373e-28
1238 9 0.001 0.0174999 0 -0.0239094 -2.7719e-25 0 -4.42878e-12 0 5.13349e-28
1239 9 0.001 0.0174999 0 -0.0232718 -2.7719e-25 0 6.05888e-12 0 7.70373e-28
1388 10 0.001 0.0224999 0 -0.0239094 -2.7719e-25 0 -4.42878e-12 0 5.13349e-28
1389 10 0.001 0.0224999 0 -0.0232718 -2.7719e-25 0 6.05888e-12 0 7.70373e-28
40 1 0.001 -0.0224999 0 -0.0226342 2.7719e-25 0 -5.37095e-12 0 5.98608e-28
41 1 0.001 -0.0224999 0 -0.0219966 2.7719e-25 0 3.11336e-12 0 3.01451e-28
42 1 0.001 -0.0224999 0 -0.0213591 2.7719e-25 0 -3.97402e-13 0 8.8505e-30
190 2 0.001 -0.0174999 0 -0.0226342 2.7719e-25 0 -5.37095e-12 0 5.98608e-28