ITEM: TIMESTEP
800000
ITEM: NUMBER OF ATOMS
1500
ITEM: BOX BOUNDS ff ff ff
-2.5000000000000001e-02 2.5000000000000001e-02
-5.0000000000000001e-03 5.0000000000000001e-03
-5.0000000000000003e-02 5.0000000000000003e-02
ITEM: ATOMS id type radius x y z fx fy fz c_bendingE c_stretchingE
1 1 0.001 -0.0225 0 -0.0475 1.00758e-17 0 4.02103e-14 0 6.58588e-32
151 2 0.001 -0.0175 0 -0.0475 1.00758e-17 0 4.02103e-14 0 6.58588e-32
301 3 0.001 -0.0125 0 -0.0475 -1.00758e-17 0 4.02103e-14 0 6.58588e-32
451 4 0.001 -0.00750001 0 -0.0475 -1.00758e-17 0 4.02103e-14 0 6.58588e-32
601 5 0.001 -0.00250001 0 -0.0475 -1.00758e-17 0 4.02103e-14 0 6.58588e-32
751 6 0.001 0.00250001 0 -0.0475 1.00758e-17 0 4.02103e-14 0 6.58588e-32
901 7 0.001 0.00749999 0 -0.0475 -1.00758e-17 0 4.02103e-14 0 6.58588e-32
1051 8 0.001 0.0125 0 -0.0475 1.00758e-17 0 4.02103e-14 0 6.58588e-32
1201 9 0.001 0.0175 0 -0.0475 -1.00758e-17 0 4.02103e-14 0 6.58588e-32
1351 10 0.001 0.0225 0 -0.0475 -1.00758e-17 0 4.02103e-14 0 6.58588e-32
2 1 0.001 -0.0225 0 -0.0468624 1.00758e-17 0 1.63038e-12 0 1.15788e-28
3 1 0.001 -0.0225 0 -0.0462248 1.00758e-17 0 -3.84556e-12 0 3.12105e-28
4 1 0.001 -0.0225 0 -0.0455872 1.00758e-17 0 3.88782e-12 0 3.1797e-28
152 2 0.001 -0.0175 0 -0.0468624 1.00758e-17 0 1.63038e-12 0 1.15788e-28
153 2 0.001 -0.0175 0 -0.0462248 1.00758e-17 0 -3.84556e-12 0 3.12105e-28
154 2 0.001 -0.0175 0 -0.0455872 1.00758e-17 0 3.88782e-12 0 3.1797e-28
302 3 0.001 -0.0125 0 -0.0468624 -1.00758e-17 0 1.63038e-12 0 1.15788e-28
303 3 0.001 -0.0125 0 -0.0462248 -1.00758e-17 0 -3.84556e-12 0 3.12105e-28
304 3 0.001 -0.0125 0 -0.0455872 -1.00758e-17 0 3.88782e-12 0 3.1797e-28
452 4 0.001 -0.00750001 0 -0.0468624 -1.00758e-17 0 1.63038e-12 0 1.15788e-28
453 4 0.001 -0.00750001 0 -0.0462248 -1.00758e-17 0 -3.84556e-12 0 3.12105e-28
454 4 0.001 -0.00750001 0 -0.0455872 -1.00758e-17 0 3.88782e-12 0 3.1797e-28
602 5 0.001 -0.00250001 0 -0.0468624 -1.00758e-17 0 1.63038e-12 0 1.15788e-28
603 5 0.001 -0.00250001 0 -0.0462248 -1.00758e-17 0 -3.84556e-12 0 3.12105e-28
604 5 0.001 -0.00250001 0 -0.0455872 -1.00758e-17 0 3.88782e-12 0 3.1797e-28
752 6 0.001 0.00250001 0 -0.0468624 1.00758e-17 0 1.63038e-12 0 1.15788e-28
753 6 0.001 0.00250001 0 -0.0462248 1.00758e-17 0 -3.84556e-12 0 3.12105e-28
754 6 0.001 0.00250001 0 -0.0455872 1.00758e-17 0 3.88782e-12 0 3.1797e-28
902 7 0.001 0.00749999 0 -0.0468624 -1.00758e-17 0 1.63038e-12 0 1.15788e-28
903 7 0.001 0.00749999 0 -0.0462248 -1.00758e-17 0 -3.84556e-12 0 3.12105e-28
904 7 0.001 0.00749999 0 -0.0455872 -1.00758e-17 0 3.88782e-12 0 3.1797e-28
1052 8 0.001 0.0125 0 -0.0468624 1.00758e-17 0 1.63038e-12 0 1.15788e-28
1053 8 0.001 0.0125 0 -0.0462248 1.00758e-17 0 -3.84556e-12 0 3.12105e-28
1054 8 0.001 0.0125 0 -0.0455872 1.00758e-17 0 3.88782e-12 0 3.1797e-28
1202 9 0.001 0.0175 0 -0.0468624 -1.00758e-17 0 1.63038e-12 0 1.15788e-28
1203 9 0.001 0.0175 0 -0.0462248 -1.00758e-17 0 -3.84556e-12 0 3.12105e-28
1204 9 0.001 0.0175 0 -0.0455872 -1.00758e-17 0 3.88782e-12 0 3.1797e-28
1352 10 0.001 0.0225 0 -0.0468624 -1.00758e-17 0 1.63038e-12 0 1.15788e-28
1353 10 0.001 0.0225 0 -0.0462248 -1.00758e-17 0 -3.84556e-12 0 3.12105e-28
1354 10 0.001 0.0225 0 -0.0455872 -1.00758e-17 0 3.88782e-12 0 3.1797e-28
5 1 0.001 -0.0225 0 -0.0449497 1.00758e-17 0 -1.33868e-12 0 1.27399e-28
6 1 0.001 -0.0225 0 -0.0443121 1.00758e-17 0 -3.42647e-12 0 3.92639e-28
155 2 0.001 -0.0175 0 -0.0449497 1.00758e-17 0 -1.33868e-12 0 1.27399e-28
156 2 0.001 -0.0175 0 -0.0443121 1.00758e-17 0 -3.42647e-12 0 3.92639e-28
305 3 0.001 -0.0125 0 -0.0449497 -1.00758e-17 0 -1.33868e-12 0 1.27399e-28
306 3 0.001 -0.0125 0 -0.0443121 -1.00758e-17 0 -3.42647e-12 0 3.92639e-28
455 4 0.001 -0.00750001 0 -0.0449497 -1.00758e-17 0 -1.33868e-12 0 1.27399e-28
456 4 0.001 -0.00750001 0 -0.0443121 -1.00758e-17 0 -3.42647e-12 0 3.92639e-28
605 5 0.001 -0.00250001 0 -0.0449497 -1.00758e-17 0 -1.33868e-12 0 1.27399e-28
606 5 0.001 -0.00250001 0 -0.0443121 -1.00758e-17 0 -3.42647e-12 0 3.92639e-28
755 6 0.001 0.00250001 0 -0.0449497 1.00758e-17 0 -1.33868e-12 0 1.27399e-28
756 6 0.001 0.00250001 0 -0.0443121 1.00758e-17 0 -3.42647e-12 0 3.92639e-28
905 7 0.001 0.00749999 0 -0.0449497 -1.00758e-17 0 -1.33868e-12 0 1.27399e-28
906 7 0.001 0.00749999 0 -0.0443121 -1.00758e-17 0 -3.42647e-12 0 3.92639e-28
1055 8 0.001 0.0125 0 -0.0449497 1.00758e-17 0 -1.33868e-12 0 1.27399e-28
1056 8 0.001 0.0125 0 -0.0443121 1.00758e-17 0 -3.42647e-12 0 3.92639e-28
1205 9 0.001 0.0175 0 -0.0449497 -1.00758e-17 0 -1.33868e-12 0 1.27399e-28
1206 9 0.001 0.0175 0 -0.0443121 -1.00758e-17 0 -3.42647e-12 0 3.92639e-28
1355 10 0.001 0.0225 0 -0.0449497 -1.00758e-17 0 -1.33868e-12 0 1.27399e-28
1356 10 0.001 0.0225 0 -0.0443121 -1.00758e-17 0 -3.42647e-12 0 3.92639e-28
7 1 0.001 -0.0225 0 -0.0436745 1.00758e-17 0 6.14251e-12 0 7.83313e-28
8 1 0.001 -0.0225 0 -0.0430369 1.00758e-17 0 -5.14078e-12 0 5.70882e-28
157 2 0.001 -0.0175 0 -0.0436745 1.00758e-17 0 6.14251e-12 0 7.83313e-28
158 2 0.001 -0.0175 0 -0.0430369 1.00758e-17 0 -5.14078e-12 0 5.70882e-28
307 3 0.001 -0.0125 0 -0.0436745 -1.00758e-17 0 6.14251e-12 0 7.83313e-28
308 3 0.001 -0.0125 0 -0.0430369 -1.00758e-17 0 -5.14078e-12 0 5.70882e-28
457 4 0.001 -0.00750001 0 -0.0436745 -1.00758e-17 0 6.14251e-12 0 7.83313e-28
458 4 0.001 -0.00750001 0 -0.0430369 -1.00758e-17 0 -5.14078e-12 0 5.70882e-28
607 5 0.001 -0.00250001 0 -0.0436745 -1.00758e-17 0 6.14251e-12 0 7.83313e-28
608 5 0.001 -0.00250001 0 -0.0430369 -1.00758e-17 0 -5.14078e-12 0 5.70882e-28
757 6 0.001 0.00250001 0 -0.0436745 1.00758e-17 0 6.14251e-12 0 7.83313e-28
758 6 0.001 0.00250001 0 -0.0430369 1.00758e-17 0 -5.14078e-12 0 5.70882e-28
907 7 0.001 0.00749999 0 -0.0436745 -1.00758e-17 0 6.14251e-12 0 7.83313e-28
908 7 0.001 0.00749999 0 -0.0430369 -1.00758e-17 0 -5.14078e-12 0 5.70882e-28
1057 8 0.001 0.0125 0 -0.0436745 1.00758e-17 0 6.14251e-12 0 7.83313e-28
1058 8 0.001 0.0125 0 -0.0430369 1.00758e-17 0 -5.14078e-12 0 5.70882e-28
1207 9 0.001 0.0175 0 -0.0436745 -1.00758e-17 0 6.14251e-12 0 7.83313e-28
1208 9 0.001 0.0175 0 -0.0430369 -1.00758e-17 0 -5.14078e-12 0 5.70882e-28
1357 10 0.001 0.0225 0 -0.0436745 -1.00758e-17 0 6.14251e-12 0 7.83313e-28
1358 10 0.001 0.0225 0 -0.0430369 -1.00758e-17 0 -5.14078e-12 0 5.70882e-28
9 1 0.001 -0.0225 0 -0.0423993 1.00758e-17 0 3.55231e-12 0 2.68107e-28
10 1 0.001 -0.0225 0 -0.0417617 1.00758e-17 0 5.1507e-16 0 1.87421e-28
11 1 0.001 -0.0225 0 -0.0411242 1.00758e-17 0 -2.96659e-12 0 1.82756e-28
159 2 0.001 -0.0175 0 -0.0423993 1.00758e-17 0 3.55231e-12 0 2.68107e-28
160 2 0.001 -0.0175 0 -0.0417617 1.00758e-17 0 5.1507e-16 0 1.87421e-28
161 2 0.001 -0.0175 0 -0.0411242 1.00758e-17 0 -2.96659e-12 0 1.82756e-28
309 3 0.001 -0.0125 0 -0.0423993 -1.00758e-17 0 3.55231e-12 0 2.68107e-28
310 3 0.001 -0.0125 0 -0.0417617 -1.00758e-17 0 5.1507e-16 0 1.87421e-28
311 3 0.001 -0.0125 0 -0.0411242 -1.00758e-17 0 -2.96659e-12 0 1.82756e-28
459 4 0.001 -0.00750001 0 -0.0423993 -1.00758e-17 0 3.55231e-12 0 2.68107e-28
460 4 0.001 -0.00750001 0 -0.0417617 -1.00758e-17 0 5.1507e-16 0 1.87421e-28
461 4 0.001 -0.00750001 0 -0.0411242 -1.00758e-17 0 -2.96659e-12 0 1.82756e-28
609 5 0.001 -0.00250001 0 -0.0423993 -1.00758e-17 0 3.55231e-12 0 2.68107e-28
610 5 0.001 -0.00250001 0 -0.0417617 -1.00758e-17 0 5.1507e-16 0 1.87421e-28
611 5 0.001 -0.00250001 0 -0.0411242 -1.00758e-17 0 -2.96659e-12 0 1.82756e-28
759 6 0.001 0.00250001 0 -0.0423993 1.00758e-17 0 3.55231e-12 0 2.68107e-28
760 6 0.001 0.00250001 0 -0.0417617 1.00758e-17 0 5.1507e-16 0 1.87421e-28
761 6 0.001 0.00250001 0 -0.0411242 1.00758e-17 0 -2.96659e-12 0 1.82756e-28
909 7 0.001 0.00749999 0 -0.0423993 -1.00758e-17 0 3.55231e-12 0 2.68107e-28
910 7 0.001 0.00749999 0 -0.0417617 -1.00758e-17 0 5.1507e-16 0 1.87421e-28
911 7 0.001 0.00749999 0 -0.0411242 -1.00758e-17 0 -2.96659e-12 0 1.82756e-28
1059 8 0.001 0.0125 0 -0.0423993 1.00758e-17 0 3.55231e-12 0 2.68107e-28
1060 8 0.001 0.0125 0 -0.0417617 1.00758e-17 0 5.1507e-16 0 1.87421e-28
1061 8 0.001 0.0125 0 -0.0411242 1.00758e-17 0 -2.96659e-12 0 1.82756e-28
1209 9 0.001 0.0175 0 -0.0423993 -1.00758e-17 0 3.55231e-12 0 2.68107e-28
1210 9 0.001 0.0175 0 -0.0417617 -1.00758e-17 0 5.1507e-16 0 1.87421e-28
1211 9 0.001 0.0175 0 -0.0411242 -1.00758e-17 0 -2.96659e-12 0 1.82756e-28
1359 10 0.001 0.0225 0 -0.0423993 -1.00758e-17 0 3.55231e-12 0 2.68107e-28
1360 10 0.001 0.0225 0 -0.0417617 -1.00758e-17 0 5.1507e-16 0 1.87421e-28
1361 10 0.001 0.0225 0 -0.0411242 -1.00758e-17 0 -2.96659e-12 0 1.82756e-28
12 1 0.001 -0.0225 0 -0.0404866 1.00758e-17 0 8.33568e-14 0 1.68218e-28
13 1 0.001 -0.0225 0 -0.039849 1.00758e-17 0 4.18716e-13 0 1.1768e-28
162 2 0.001 -0.0175 0 -0.0404866 1.00758e-17 0 8.33568e-14 0 1.68218e-28
163 2 0.001 -0.0175 0 -0.039849 1.00758e-17 0 4.18716e-13 0 1.1768e-28
312 3 0.001 -0.0125 0 -0.0404866 -1.00758e-17 0 8.33568e-14 0 1.68218e-28
313 3 0.001 -0.0125 0 -0.039849 -1.00758e-17 0 4.18716e-13 0 1.1768e-28
462 4 0.001 -0.00750001 0 -0.0404866 -1.00758e-17 0 8.33568e-14 0 1.68218e-28
463 4 0.001 -0.00750001 0 -0.039849 -1.00758e-17 0 4.18716e-13 0 1.1768e-28
612 5 0.001 -0.00250001 0 -0.0404866 -1.00758e-17 0 8.33568e-14 0 1.68218e-28
613 5 0.001 -0.00250001 0 -0.039849 -1.00758e-17 0 4.18716e-13 0 1.1768e-28
762 6 0.001 0.00250001 0 -0.0404866 1.00758e-17 0 8.33568e-14 0 1.68218e-28
763 6 0.001 0.00250001 0 -0.039849 1.00758e-17 0 4.18716e-13 0 1.1768e-28
912 7 0.001 0.00749999 0 -0.0404866 -1.00758e-17 0 8.33568e-14 0 1.68218e-28
913 7 0.001 0.00749999 0 -0.039849 -1.00758e-17 0 4.18716e-13 0 1.1768e-28
1062 8 0.001 0.0125 0 -0.0404866 1.00758e-17 0 8.33568e-14 0 1.68218e-28
1063 8 0.001 0.0125 0 -0.039849 1.00758e-17 0 4.18716e-13 0 1.1768e-28
1212 9 0.001 0.0175 0 -0.0404866 -1.00758e-17 0 8.33568e-14 0 1.68218e-28
1213 9 0.001 0.0175 0 -0.039849 -1.00758e-17 0 4.18716e-13 0 1.1768e-28
1362 10 0.001 0.0225 0 -0.0404866 -1.00758e-17 0 8.33568e-14 0 1.68218e-28
1363 10 0.001 0.0225 0 -0.039849 -1.00758e-17 0 4.18716e-13 0 1.1768e-28
14 1 0.001 -0.0225 0 -0.0392114 1.00758e-17 0 5.93427e-12 0 1.06431e-27
15 1 0.001 -0.0225 0 -0.0385738 1.00758e-17 0 -3.25956e-12 0 1.1474e-27
16 1 0.001 -0.0225 0 -0.0379362 1.00758e-17 0 -7.23136e-12 0 1.38566e-27
164 2 0.001 -0.0175 0 -0.0392114 1.00758e-17 0 5.93427e-12 0 1.06431e-27
165 2 0.001 -0.0175 0 -0.0385738 1.00758e-17 0 -3.25956e-12 0 1.1474e-27
166 2 0.001 -0.0175 0 -0.0379362 1.00758e-17 0 -7.23136e-12 0 1.38566e-27
314 3 0.001 -0.0125 0 -0.0392114 -1.00758e-17 0 5.93427e-12 0 1.06431e-27
315 3 0.001 -0.0125 0 -0.0385738 -1.00758e-17 0 -3.25956e-12 0 1.1474e-27
316 3 0.001 -0.0125 0 -0.0379362 -1.00758e-17 0 -7.23136e-12 0 1.38566e-27
464 4 0.001 -0.00750001 0 -0.0392114 -1.00758e-17 0 5.93427e-12 0 1.06431e-27
465 4 0.001 -0.00750001 0 -0.0385738 -1.00758e-17 0 -3.25956e-12 0 1.1474e-27
466 4 0.001 -0.00750001 0 -0.0379362 -1.00758e-17 0 -7.23136e-12 0 1.38566e-27
614 5 0.001 -0.00250001 0 -0.0392114 -1.00758e-17 0 5.93427e-12 0 1.06431e-27
615 5 0.001 -0.00250001 0 -0.0385738 -1.00758e-17 0 -3.25956e-12 0 1.1474e-27
616 5 0.001 -0.00250001 0 -0.0379362 -1.00758e-17 0 -7.23136e-12 0 1.38566e-27
764 6 0.001 0.00250001 0 -0.0392114 1.00758e-17 0 5.93427e-12 0 1.06431e-27
765 6 0.001 0.00250001 0 -0.0385738 1.00758e-17 0 -3.25956e-12 0 1.1474e-27
766 6 0.001 0.00250001 0 -0.0379362 1.00758e-17 0 -7.23136e-12 0 1.38566e-27
914 7 0.001 0.00749999 0 -0.0392114 -1.00758e-17 0 5.93427e-12 0 1.06431e-27
915 7 0.001 0.00749999 0 -0.0385738 -1.00758e-17 0 -3.25956e-12 0 1.1474e-27
916 7 0.001 0.00749999 0 -0.0379362 -1.00758e-17 0 -7.23136e-12 0 1.38566e-27
1064 8 0.001 0.0125 0 -0.0392114 1.00758e-17 0 5.93427e-12 0 1.06431e-27
1065 8 0.001 0.0125 0 -0.0385738 1.00758e-17 0 -3.25956e-12 0 1.1474e-27
1066 8 0.001 0.0125 0 -0.0379362 1.00758e-17 0 -7.23136e-12 0 1.38566e-27
1214 9 0.001 0.0175 0 -0.0392114 -1.00758e-17 0 5.93427e-12 0 1.06431e-27
1215 9 0.001 0.0175 0 -0.0385738 -1.00758e-17 0 -3.25956e-12 0 1.1474e-27
1216 9 0.001 0.0175 0 -0.0379362 -1.00758e-17 0 -7.23136e-12 0 1.38566e-27
1364 10 0.001 0.0225 0 -0.0392114 -1.00758e-17 0 5.93427e-12 0 1.06431e-27
1365 10 0.001 0.0225 0 -0.0385738 -1.00758e-17 0 -3.25956e-12 0 1.1474e-27
1366 10 0.001 0.0225 0 -0.0379362 -1.00758e-17 0 -7.23136e-12 0 1.38566e-27
17 1 0.001 -0.0225 0 -0.0372987 1.00758e-17 0 7.8995e-12 0 1.49922e-27
18 1 0.001 -0.0225 0 -0.0366611 1.00758e-17 0 -2.38335e-12 0 2.35153e-28
167 2 0.001 -0.0175 0 -0.0372987 1.00758e-17 0 7.8995e-12 0 1.49922e-27
168 2 0.001 -0.0175 0 -0.0366611 1.00758e-17 0 -2.38335e-12 0 2.35153e-28
317 3 0.001 -0.0125 0 -0.0372987 -1.00758e-17 0 7.8995e-12 0 1.49922e-27
318 3 0.001 -0.0125 0 -0.0366611 -1.00758e-17 0 -2.38335e-12 0 2.35153e-28
467 4 0.001 -0.00750001 0 -0.0372987 -1.00758e-17 0 7.8995e-12 0 1.49922e-27
468 4 0.001 -0.00750001 0 -0.0366611 -1.00758e-17 0 -2.38335e-12 0 2.35153e-28
617 5 0.001 -0.00250001 0 -0.0372987 -1.00758e-17 0 7.8995e-12 0 1.49922e-27
618 5 0.001 -0.00250001 0 -0.0366611 -1.00758e-17 0 -2.38335e-12 0 2.35153e-28
767 6 0.001 0.00250001 0 -0.0372987 1.00758e-17 0 7.8995e-12 0 1.49922e-27
768 6 0.001 0.00250001 0 -0.0366611 1.00758e-17 0 -2.38335e-12 0 2.35153e-28
917 7 0.001 0.00749999 0 -0.0372987 -1.00758e-17 0 7.8995e-12 0 1.49922e-27
918 7 0.001 0.00749999 0 -0.0366611 -1.00758e-17 0 -2.38335e-12 0 2.35153e-28
1067 8 0.001 0.0125 0 -0.0372987 1.00758e-17 0 7.8995e-12 0 1.49922e-27
1068 8 0.001 0.0125 0 -0.0366611 1.00758e-17 0 -2.38335e-12 0 2.35153e-28
1217 9 0.001 0.0175 0 -0.0372987 -1.00758e-17 0 7.8995e-12 0 1.49922e-27
1218 9 0.001 0.0175 0 -0.0366611 -1.00758e-17 0 -2.38335e-12 0 2.35153e-28
1367 10 0.001 0.0225 0 -0.0372987 -1.00758e-17 0 7.8995e-12 0 1.49922e-27
1368 10 0.001 0.0225 0 -0.0366611 -1.00758e-17 0 -2.38335e-12 0 2.35153e-28
19 1 0.001 -0.0225 0 -0.0360235 1.00758e-17 0 -2.84063e-12 0 3.35684e-28
20 1 0.001 -0.0225 0 -0.0353859 1.00758e-17 0 3.2602e-12 0 3.42866e-28
169 2 0.001 -0.0175 0 -0.0360235 1.00758e-17 0 -2.84063e-12 0 3.35684e-28
170 2 0.001 -0.0175 0 -0.0353859 1.00758e-17 0 3.2602e-12 0 3.42866e-28
319 3 0.001 -0.0125 0 -0.0360235 -1.00758e-17 0 -2.84063e-12 0 3.35684e-28
320 3 0.001 -0.0125 0 -0.0353859 -1.00758e-17 0 3.2602e-12 0 3.42866e-28
469 4 0.001 -0.00750001 0 -0.0360235 -1.00758e-17 0 -2.84063e-12 0 3.35684e-28
470 4 0.001 -0.00750001 0 -0.0353859 -1.00758e-17 0 3.2602e-12 0 3.42866e-28
619 5 0.001 -0.00250001 0 -0.0360235 -1.00758e-17 0 -2.84063e-12 0 3.35684e-28
620 5 0.001 -0.00250001 0 -0.0353859 -1.00758e-17 0 3.2602e-12 0 3.42866e-28
769 6 0.001 0.00250001 0 -0.0360235 1.00758e-17 0 -2.84063e-12 0 3.35684e-28
770 6 0.001 0.00250001 0 -0.0353859 1.00758e-17 0 3.2602e-12 0 3.42866e-28
919 7 0.001 0.00749999 0 -0.0360235 -1.00758e-17 0 -2.84063e-12 0 3.35684e-28
920 7 0.001 0.00749999 0 -0.0353859 -1.00758e-17 0 3.2602e-12 0 3.42866e-28
1069 8 0.001 0.0125 0 -0.0360235 1.00758e-17 0 -2.84063e-12 0 3.35684e-28
1070 8 0.001 0.0125 0 -0.0353859 1.00758e-17 0 3.2602e-12 0 3.42866e-28
1219 9 0.001 0.0175 0 -0.0360235 -1.00758e-17 0 -2.84063e-12 0 3.35684e-28
1220 9 0.001 0.0175 0 -0.0353859 -1.00758e-17 0 3.2602e-12 0 3.42866e-28
1369 10 0.001 0.0225 0 -0.0360235 -1.00758e-17 0 -2.84063e-12 0 3.35684e-28
1370 10 0.001 0.0225 0 -0.0353859 -1.00758e-17 0 3.2602e-12 0 3.42866e-28
21 1 0.001 -0.0225 0 -0.0347483 1.00758e-17 0 -8.51775e-14 0 1.17673e-29
22 1 0.001 -0.0225 0 -0.0341107 1.00758e-17 0 -4.55455e-12 0 7.44804e-28
23 1 0.001 -0.0225 0 -0.0334732 1.00758e-17 0 9.44497e-12 0 1.87212e-27
171 2 0.001 -0.0175 0 -0.0347483 1.00758e-17 0 -8.51775e-14 0 1.17673e-29
172 2 0.001 -0.0175 0 -0.0341107 1.00758e-17 0 -4.55455e-12 0 7.44804e-28
173 2 0.001 -0.0175 0 -0.0334732 1.00758e-17 0 9.44497e-12 0 1.87212e-27
321 3 0.001 -0.0125 0 -0.0347483 -1.00758e-17 0 -8.51775e-14 0 1.17673e-29
322 3 0.001 -0.0125 0 -0.0341107 -1.00758e-17 0 -4.55455e-12 0 7.44804e-28
323 3 0.001 -0.0125 0 -0.0334732 -1.00758e-17 0 9.44497e-12 0 1.87212e-27
471 4 0.001 -0.00750001 0 -0.0347483 -1.00758e-17 0 -8.51775e-14 0 1.17673e-29
472 4 0.001 -0.00750001 0 -0.0341107 -1.00758e-17 0 -4.55455e-12 0 7.44804e-28
473 4 0.001 -0.00750001 0 -0.0334732 -1.00758e-17 0 9.44497e-12 0 1.87212e-27
621 5 0.001 -0.00250001 0 -0.0347483 -1.00758e-17 0 -8.51775e-14 0 1.17673e-29
622 5 0.001 -0.00250001 0 -0.0341107 -1.00758e-17 0 -4.55455e-12 0 7.44804e-28
623 5 0.001 -0.00250001 0 -0.0334732 -1.00758e-17 0 9.44497e-12 0 1.87212e-27
771 6 0.001 0.00250001 0 -0.0347483 1.00758e-17 0 -8.51775e-14 0 1.17673e-29
772 6 0.001 0.00250001 0 -0.0341107 1.00758e-17 0 -4.55455e-12 0 7.44804e-28
773 6 0.001 0.00250001 0 -0.0334732 1.00758e-17 0 9.44497e-12 0 1.87212e-27
921 7 0.001 0.00749999 0 -0.0347483 -1.00758e-17 0 -8.51775e-14 0 1.17673e-29
922 7 0.001 0.00749999 0 -0.0341107 -1.00758e-17 0 -4.55455e-12 0 7.44804e-28
923 7 0.001 0.00749999 0 -0.0334732 -1.00758e-17 0 9.44497e-12 0 1.87212e-27
1071 8 0.001 0.0125 0 -0.0347483 1.00758e-17 0 -8.51775e-14 0 1.17673e-29
1072 8 0.001 0.0125 0 -0.0341107 1.00758e-17 0 -4.55455e-12 0 7.44804e-28
1073 8 0.001 0.0125 0 -0.0334732 1.00758e-17 0 9.44497e-12 0 1.87212e-27
1221 9 0.001 0.0175 0 -0.0347483 -1.00758e-17 0 -8.51775e-14 0 1.17673e-29
1222 9 0.001 0.0175 0 -0.0341107 -1.00758e-17 0 -4.55455e-12 0 7.44804e-28
1223 9 0.001 0.0175 0 -0.0334732 -1.00758e-17 0 9.44497e-12 0 1.87212e-27
1371 10 0.001 0.0225 0 -0.0347483 -1.00758e-17 0 -8.51775e-14 0 1.17673e-29
1372 10 0.001 0.0225 0 -0.0341107 -1.00758e-17 0 -4.55455e-12 0 7.44804e-28
1373 10 0.001 0.0225 0 -0.0334732 -1.00758e-17 0 9.44497e-12 0 1.87212e-27
24 1 0.001 -0.0225 0 -0.0328356 1.00758e-17 0 -7.47989e-12 0 1.34367e-27
25 1 0.001 -0.0225 0 -0.032198 1.00758e-17 0 5.80847e-12 0 7.34972e-28
174 2 0.001 -0.0175 0 -0.0328356 1.00758e-17 0 -7.47989e-12 0 1.34367e-27
175 2 0.001 -0.0175 0 -0.032198 1.00758e-17 0 5.80847e-12 0 7.34972e-28
324 3 0.001 -0.0125 0 -0.0328356 -1.00758e-17 0 -7.47989e-12 0 1.34367e-27
325 3 0.001 -0.0125 0 -0.032198 -1.00758e-17 0 5.80847e-12 0 7.34972e-28
474 4 0.001 -0.00750001 0 -0.0328356 -1.00758e-17 0 -7.47989e-12 0 1.34367e-27
475 4 0.001 -0.00750001 0 -0.032198 -1.00758e-17 0 5.80847e-12 0 7.34972e-28
624 5 0.001 -0.00250001 0 -0.0328356 -1.00758e-17 0 -7.47989e-12 0 1.34367e-27
625 5 0.001 -0.00250001 0 -0.032198 -1.00758e-17 0 5.80847e-12 0 7.34972e-28
774 6 0.001 0.00250001 0 -0.0328356 1.00758e-17 0 -7.47989e-12 0 1.34367e-27
775 6 0.001 0.00250001 0 -0.032198 1.00758e-17 0 5.80847e-12 0 7.34972e-28
924 7 0.001 0.00749999 0 -0.0328356 -1.00758e-17 0 -7.47989e-12 0 1.34367e-27
925 7 0.001 0.00749999 0 -0.032198 -1.00758e-17 0 5.80847e-12 0 7.34972e-28
1074 8 0.001 0.0125 0 -0.0328356 1.00758e-17 0 -7.47989e-12 0 1.34367e-27
1075 8 0.001 0.0125 0 -0.032198 1.00758e-17 0 5.80847e-12 0 7.34972e-28
1224 9 0.001 0.0175 0 -0.0328356 -1.00758e-17 0 -7.47989e-12 0 1.34367e-27
1225 9 0.001 0.0175 0 -0.032198 -1.00758e-17 0 5.80847e-12 0 7.34972e-28
1374 10 0.001 0.0225 0 -0.0328356 -1.00758e-17 0 -7.47989e-12 0 1.34367e-27
1375 10 0.001 0.0225 0 -0.032198 -1.00758e-17 0 5.80847e-12 0 7.34972e-28
26 1 0.001 -0.0225 0 -0.0315604 1.00758e-17 0 -5.64305e-12 0 7.04787e-28
27 1 0.001 -0.0225 0 -0.0309228 1.00758e-17 0 3.28186e-12 0 2.40272e-28
176 2 0.001 -0.0175 0 -0.0315604 1.00758e-17 0 -5.64305e-12 0 7.04787e-28
177 2 0.001 -0.0175 0 -0.0309228 1.00758e-17 0 3.28186e-12 0 2.40272e-28
326 3 0.001 -0.0125 0 -0.0315604 -1.00758e-17 0 -5.64305e-12 0 7.04787e-28
327 3 0.001 -0.0125 0 -0.0309228 -1.00758e-17 0 3.28186e-12 0 2.40272e-28
476 4 0.001 -0.00750001 0 -0.0315604 -1.00758e-17 0 -5.64305e-12 0 7.04787e-28
477 4 0.001 -0.00750001 0 -0.0309228 -1.00758e-17 0 3.28186e-12 0 2.40272e-28
626 5 0.001 -0.00250001 0 -0.0315604 -1.00758e-17 0 -5.64305e-12 0 7.04787e-28
627 5 0.001 -0.00250001 0 -0.0309228 -1.00758e-17 0 3.28186e-12 0 2.40272e-28
776 6 0.001 0.00250001 0 -0.0315604 1.00758e-17 0 -5.64305e-12 0 7.04787e-28
777 6 0.001 0.00250001 0 -0.0309228 1.00758e-17 0 3.28186e-12 0 2.40272e-28
926 7 0.001 0.00749999 0 -0.0315604 -1.00758e-17 0 -5.64305e-12 0 7.04787e-28
927 7 0.001 0.00749999 0 -0.0309228 -1.00758e-17 0 3.28186e-12 0 2.40272e-28
1076 8 0.001 0.0125 0 -0.0315604 1.00758e-17 0 -5.64305e-12 0 7.04787e-28
1077 8 0.001 0.0125 0 -0.0309228 1.00758e-17 0 3.28186e-12 0 2.40272e-28
1226 9 0.001 0.0175 0 -0.0315604 -1.00758e-17 0 -5.64305e-12 0 7.04787e-28
1227 9 0.001 0.0175 0 -0.0309228 -1.00758e-17 0 3.28186e-12 0 2.40272e-28
1376 10 0.001 0.0225 0 -0.0315604 -1.00758e-17 0 -5.64305e-12 0 7.04787e-28
1377 10 0.001 0.0225 0 -0.0309228 -1.00758e-17 0 3.28186e-12 0 2.40272e-28
28 1 0.001 -0.0225 0 -0.0302852 1.00758e-17 0 -2.29797e-12 0 1.09782e-28
29 1 0.001 -0.0225 0 -0.0296477 1.00758e-17 0 1.69206e-12 0 6.52049e-29
30 1 0.001 -0.0225 0 -0.0290101 1.00758e-17 0 7.09601e-13 0 8.35724e-29
178 2 0.001 -0.0175 0 -0.0302852 1.00758e-17 0 -2.29797e-12 0 1.09782e-28
179 2 0.001 -0.0175 0 -0.0296477 1.00758e-17 0 1.69206e-12 0 6.52049e-29
180 2 0.001 -0.0175 0 -0.0290101 1.00758e-17 0 7.09601e-13 0 8.35724e-29
328 3 0.001 -0.0125 0 -0.0302852 -1.00758e-17 0 -2.29797e-12 0 1.09782e-28
329 3 0.001 -0.0125 0 -0.0296477 -1.00758e-17 0 1.69206e-12 0 6.52049e-29
330 3 0.001 -0.0125 0 -0.0290101 -1.00758e-17 0 7.09601e-13 0 8.35724e-29
478 4 0.001 -0.00750001 0 -0.0302852 -1.00758e-17 0 -2.29797e-12 0 1.09782e-28
479 4 0.001 -0.00750001 0 -0.0296477 -1.00758e-17 0 1.69206e-12 0 6.52049e-29
480 4 0.001 -0.00750001 0 -0.0290101 -1.00758e-17 0 7.09601e-13 0 8.35724e-29
628 5 0.001 -0.00250001 0 -0.0302852 -1.00758e-17 0 -2.29797e-12 0 1.09782e-28
629 5 0.001 -0.00250001 0 -0.0296477 -1.00758e-17 0 1.69206e-12 0 6.52049e-29
630 5 0.001 -0.00250001 0 -0.0290101 -1.00758e-17 0 7.09601e-13 0 8.35724e-29
778 6 0.001 0.00250001 0 -0.0302852 1.00758e-17 0 -2.29797e-12 0 1.09782e-28
779 6 0.001 0.00250001 0 -0.0296477 1.00758e-17 0 1.69206e-12 0 6.52049e-29
780 6 0.001 0.00250001 0 -0.0290101 1.00758e-17 0 7.09601e-13 0 8.35724e-29
928 7 0.001 0.00749999 0 -0.0302852 -1.00758e-17 0 -2.29797e-12 0 1.09782e-28
929 7 0.001 0.00749999 0 -0.0296477 -1.00758e-17 0 1.69206e-12 0 6.52049e-29
930 7 0.001 0.00749999 0 -0.0290101 -1.00758e-17 0 7.09601e-13 0 8.35724e-29
1078 8 0.001 0.0125 0 -0.0302852 1.00758e-17 0 -2.29797e-12 0 1.09782e-28
1079 8 0.001 0.0125 0 -0.0296477 1.00758e-17 0 1.69206e-12 0 6.52049e-29
1080 8 0.001 0.0125 0 -0.0290101 1.00758e-17 0 7.09601e-13 0 8.35724e-29
1228 9 0.001 0.0175 0 -0.0302852 -1.00758e-17 0 -2.29797e-12 0 1.09782e-28
1229 9 0.001 0.0175 0 -0.0296477 -1.00758e-17 0 1.69206e-12 0 6.52049e-29
1230 9 0.001 0.0175 0 -0.0290101 -1.00758e-17 0 7.09601e-13 0 8.35724e-29
1378 10 0.001 0.0225 0 -0.0302852 -1.00758e-17 0 -2.29797e-12 0 1.09782e-28
1379 10 0.001 0.0225 0 -0.0296477 -1.00758e-17 0 1.69206e-12 0 6.52049e-29
1380 10 0.001 0.0225 0 -0.0290101 -1.00758e-17 0 7.09601e-13 0 8.35724e-29
31 1 0.001 -0.0225 0 -0.0283725 1.00758e-17 0 -6.97878e-12 0 1.41127e-27
32 1 0.001 -0.0225 0 -0.0277349 1.00758e-17 0 9.31892e-12 0 1.88994e-27
181 2 0.001 -0.0175 0 -0.0283725 1.00758e-17 0 -6.97878e-12 0 1.41127e-27
182 2 0.001 -0.0175 0 -0.0277349 1.00758e-17 0 9.31892e-12 0 1.88994e-27
331 3 0.001 -0.0125 0 -0.0283725 -1.00758e-17 0 -6.97878e-12 0 1.41127e-27
332 3 0.001 -0.0125 0 -0.0277349 -1.00758e-17 0 9.31892e-12 0 1.88994e-27
481 4 0.001 -0.00750001 0 -0.0283725 -1.00758e-17 0 -6.97878e-12 0 1.41127e-27
482 4 0.001 -0.00750001 0 -0.0277349 -1.00758e-17 0 9.31892e-12 0 1.88994e-27
631 5 0.001 -0.00250001 0 -0.0283725 -1.00758e-17 0 -6.97878e-12 0 1.41127e-27
632 5 0.001 -0.00250001 0 -0.0277349 -1.00758e-17 0 9.31892e-12 0 1.88994e-27
781 6 0.001 0.00250001 0 -0.0283725 1.00758e-17 0 -6.97878e-12 0 1.41127e-27
782 6 0.001 0.00250001 0 -0.0277349 1.00758e-17 0 9.31892e-12 0 1.88994e-27
931 7 0.001 0.00749999 0 -0.0283725 -1.00758e-17 0 -6.97878e-12 0 1.41127e-27
932 7 0.001 0.00749999 0 -0.0277349 -1.00758e-17 0 9.31892e-12 0 1.88994e-27
1081 8 0.001 0.0125 0 -0.0283725 1.00758e-17 0 -6.97878e-12 0 1.41127e-27
1082 8 0.001 0.0125 0 -0.0277349 1.00758e-17 0 9.31892e-12 0 1.88994e-27
1231 9 0.001 0.0175 0 -0.0283725 -1.00758e-17 0 -6.97878e-12 0 1.41127e-27
1232 9 0.001 0.0175 0 -0.0277349 -1.00758e-17 0 9.31892e-12 0 1.88994e-27
1381 10 0.001 0.0225 0 -0.0283725 -1.00758e-17 0 -6.97878e-12 0 1.41127e-27
1382 10 0.001 0.0225 0 -0.0277349 -1.00758e-17 0 9.31892e-12 0 1.88994e-27
33 1 0.001 -0.0225 0 -0.0270973 1.00758e-17 0 -2.98833e-12 0 5.65444e-28
34 1 0.001 -0.0225 0 -0.0264597 1.00758e-17 0 -1.83836e-12 0 7.63908e-29
35 1 0.001 -0.0225 0 -0.0258221 1.00758e-17 0 -4.79122e-13 0 1.75344e-28
183 2 0.001 -0.0175 0 -0.0270973 1.00758e-17 0 -2.98833e-12 0 5.65444e-28
184 2 0.001 -0.0175 0 -0.0264597 1.00758e-17 0 -1.83836e-12 0 7.63908e-29
185 2 0.001 -0.0175 0 -0.0258221 1.00758e-17 0 -4.79122e-13 0 1.75344e-28
333 3 0.001 -0.0125 0 -0.0270973 -1.00758e-17 0 -2.98833e-12 0 5.65444e-28
334 3 0.001 -0.0125 0 -0.0264597 -1.00758e-17 0 -1.83836e-12 0 7.63908e-29
335 3 0.001 -0.0125 0 -0.0258221 -1.00758e-17 0 -4.79122e-13 0 1.75344e-28
483 4 0.001 -0.00750001 0 -0.0270973 -1.00758e-17 0 -2.98833e-12 0 5.65444e-28
484 4 0.001 -0.00750001 0 -0.0264597 -1.00758e-17 0 -1.83836e-12 0 7.63908e-29
485 4 0.001 -0.00750001 0 -0.0258221 -1.00758e-17 0 -4.79122e-13 0 1.75344e-28
633 5 0.001 -0.00250001 0 -0.0270973 -1.00758e-17 0 -2.98833e-12 0 5.65444e-28
634 5 0.001 -0.00250001 0 -0.0264597 -1.00758e-17 0 -1.83836e-12 0 7.63908e-29
635 5 0.001 -0.00250001 0 -0.0258221 -1.00758e-17 0 -4.79122e-13 0 1.75344e-28
783 6 0.001 0.00250001 0 -0.0270973 1.00758e-17 0 -2.98833e-12 0 5.65444e-28
784 6 0.001 0.00250001 0 -0.0264597 1.00758e-17 0 -1.83836e-12 0 7.63908e-29
785 6 0.001 0.00250001 0 -0.0258221 1.00758e-17 0 -4.79122e-13 0 1.75344e-28
933 7 0.001 0.00749999 0 -0.0270973 -1.00758e-17 0 -2.98833e-12 0 5.65444e-28
934 7 0.001 0.00749999 0 -0.0264597 -1.00758e-17 0 -1.83836e-12 0 7.63908e-29
935 7 0.001 0.00749999 0 -0.0258221 -1.00758e-17 0 -4.79122e-13 0 1.75344e-28
1083 8 0.001 0.0125 0 -0.0270973 1.00758e-17 0 -2.98833e-12 0 5.65444e-28
1084 8 0.001 0.0125 0 -0.0264597 1.00758e-17 0 -1.83836e-12 0 7.63908e-29
1085 8 0.001 0.0125 0 -0.0258221 1.00758e-17 0 -4.79122e-13 0 1.75344e-28
1233 9 0.001 0.0175 0 -0.0270973 -1.00758e-17 0 -2.98833e-12 0 5.65444e-28
1234 9 0.001 0.0175 0 -0.0264597 -1.00758e-17 0 -1.83836e-12 0 7.63908e-29
1235 9 0.001 0.0175 0 -0.0258221 -1.00758e-17 0 -4.79122e-13 0 1.75344e-28
1383 10 0.001 0.0225 0 -0.0270973 -1.00758e-17 0 -2.98833e-12 0 5.65444e-28
1384 10 0.001 0.0225 0 -0.0264597 -1.00758e-17 0 -1.83836e-12 0 7.63908e-29
1385 10 0.001 0.0225 0 -0.0258221 -1.00758e-17 0 -4.79122e-13 0 1.75344e-28
36 1 0.001 -0.0225 0 -0.0251846 1.00758e-17 0 2.31797e-12 0 1.33578e-28
37 1 0.001 -0.0225 0 -0.024547 1.00758e-17 0 -1.98443e-12 0 9.17656e-29
186 2 0.001 -0.0175 0 -0.0251846 1.00758e-17 0 2.31797e-12 0 1.33578e-28
187 2 0.001 -0.0175 0 -0.024547 1.00758e-17 0 -1.98443e-12 0 9.17656e-29
336 3 0.001 -0.0125 0 -0.0251846 -1.00758e-17 0 2.31797e-12 0 1.33578e-28
337 3 0.001 -0.0125 0 -0.024547 -1.00758e-17 0 -1.98443e-12 0 9.17656e-29
486 4 0.001 -0.00750001 0 -0.0251846 -1.00758e-17 0 2.31797e-12 0 1.33578e-28
487 4 0.001 -0.00750001 0 -0.024547 -1.00758e-17 0 -1.98443e-12 0 9.17656e-29
636 5 0.001 -0.00250001 0 -0.0251846 -1.00758e-17 0 2.31797e-12 0 1.33578e-28
637 5 0.001 -0.00250001 0 -0.024547 -1.00758e-17 0 -1.98443e-12 0 9.17656e-29
786 6 0.001 0.00250001 0 -0.0251846 1.00758e-17 0 2.31797e-12 0 1.33578e-28
787 6 0.001 0.00250001 0 -0.024547 1.00758e-17 0 -1.98443e-12 0 9.17656e-29
936 7 0.001 0.00749999 0 -0.0251846 -1.00758e-17 0 2.31797e-12 0 1.33578e-28
937 7 0.001 0.00749999 0 -0.024547 -1.00758e-17 0 -1.98443e-12 0 9.17656e-29
1086 8 0.001 0.0125 0 -0.0251846 1.00758e-17 0 2.31797e-12 0 1.33578e-28
1087 8 0.001 0.0125 0 -0.024547 1.00758e-17 0 -1.98443e-12 0 9.17656e-29
1236 9 0.001 0.0175 0 -0.0251846 -1.00758e-17 0 2.31797e-12 0 1.33578e-28
1237 9 0.001 0.0175 0 -0.024547 -1.00758e-17 0 -1.98443e-12 0 9.17656e-29
1386 10 0.001 0.0225 0 -0.0251846 -1.00758e-17 0 2.31797e-12 0 1.33578e-28
1387 10 0.001 0.0225 0 -0.024547 -1.00758e-17 0 -1.98443e-12 0 9.17656e-29
38 1 0.001 -0.0225 0 -0.0239094 1.00758e-17 0 1.46367e-12 0 7.50858e-29
39 1 0.001 -0.0225 0 -0.0232718 1.00758e-17 0 4.19986e-12 0 7.76525e-28
188 2 0.001 -0.0175 0 -0.0239094 1.00758e-17 0 1.46367e-12 0 7.50858e-29
189 2 0.001 -0.0175 0 -0.0232718 1.00758e-17 0 4.19986e-12 0 7.76525e-28
338 3 0.001 -0.0125 0 -0.0239094 -1.00758e-17 0 1.46367e-12 0 7.50858e-29
339 3 0.001 -0.0125 0 -0.0232718 -1.00758e-17 0 4.19986e-12 0 7.76525e-28
488 4 0.001 -0.00750001 0 -0.0239094 -1.00758e-17 0 1.46367e-12 0 7.50858e-29
489 4 0.001 -0.00750001 0 -0.0232718 -1.00758e-17 0 4.19986e-12 0 7.76525e-28
638 5 0.001 -0.00250001 0 -0.0239094 -1.00758e-17 0 1.46367e-12 0 7.50858e-29
639 5 0.001 -0.00250001 0 -0.0232718 -1.00758e-17 0 4.19986e-12 0 7.76525e-28
788 6 0.001 0.00250001 0 -0.0239094 1.00758e-17 0 1.46367e-12 0 7.50858e-29
789 6 0.001 0.00250001 0 -0.0232718 1.00758e-17 0 4.19986e-12 0 7.76525e-28
938 7 0.001 0.00749999 0 -0.0239094 -1.00758e-17 0 1.46367e-12 0 7.50858e-29
939 7 0.001 0.00749999 0 -0.0232718 -1.00758e-17 0 4.19986e-12 0 7.76525e-28
1088 8 0.001 0.0125 0 -0.0239094 1.00758e-17 0 1.46367e-12 0 7.50858e-29
1089 8 0.001 0.0125 0 -0.0232718 1.00758e-17 0 4.19986e-12 0 7.76525e-28
1238 9 0.001 0.0175 0 -0.0239094 -1.00758e-17 0 1.46367e-12 0 7.50858e-29
1239 9 0.001 0.0175 0 -0.0232718 -1.00758e-17 0 4.19986e-12 0 7.76525e-28
1388 10 0.001 0.0225 0 -0.0239094 -1.00758e-17 0 1.46367e-12 0 7.50858e-29
1389 10 0.001 0.0225 0 -0.0232718 -1.00758e-17 0 4.19986e-12 0 7.76525e-28
40 1 0.001 -0.0225 0 -0.0226342 1.00758e-17 0 -5.53953e-12 0 8.37059e-28
41 1 0.001 -0.0225 0 -0.0219966 1.00758e-17 0 5.85904e-13 0 7.75802e-29
42 1 0.001 -0.0225 0 -0.0213591 1.00758e-17 0 8.36653e-13 0 1.81923e-29
190 2 0.001 -0.0175 0 -0.0226342 1.00758e-17 0 -5.53953e-12 0 8.37059e-28
191 2 0.001 -0.0175 0 -0.0219966 1.00758e-17 0 5.85904e-13 0 7.75802e-29