ITEM: TIMESTEP
2900000
ITEM: NUMBER OF ATOMS
1500
ITEM: BOX BOUNDS ff ff ff
-2.5000000000000001e-02 2.5000000000000001e-02
-5.0000000000000001e-03 5.0000000000000001e-03
-5.0000000000000003e-02 5.0000000000000003e-02
ITEM: ATOMS id type radius x y z fx fy fz c_bendingE c_stretchingE
1 1 0.001 -0.0225 0 -0.04199 -0.189091 0 -3.8e-09 1.20777e-06 1.59293e-34
2 1 0.001 -0.0225 0 -0.0413524 0.188775 0 -0.016968 2.40661e-06 1.19346e-08
3 1 0.001 -0.0224619 0 -0.0407188 -2.4232e-10 0 2.30767e-10 3.58377e-06 2.37675e-08
151 2 0.001 -0.0175 0 -0.04199 -0.183194 0 -3.8e-09 1.13355e-06 1.59293e-34
152 2 0.001 -0.0175 0 -0.0413524 0.183371 0 -0.0180448 2.25203e-06 1.34548e-08
153 2 0.001 -0.0174631 0 -0.0407189 5.21157e-11 0 2.29738e-10 3.34294e-06 2.67591e-08
301 3 0.001 -0.0125 0 -0.04199 -0.167072 0 -3.8e-09 9.42675e-07 1.59293e-34
302 3 0.001 -0.0125 0 -0.0413524 0.166974 0 -0.0209604 1.87399e-06 1.81943e-08
303 3 0.001 -0.0124664 0 -0.0407192 -1.55798e-10 0 -1.6905e-10 2.78181e-06 3.62452e-08
451 4 0.001 -0.0075 0 -0.04199 -0.136433 0 -3.8e-09 6.28481e-07 1.59293e-34
452 4 0.001 -0.0075 0 -0.0413524 0.137808 0 -0.0199276 1.23661e-06 1.63545e-08
453 4 0.001 -0.00747252 0 -0.0407187 -2.83673e-11 0 4.69342e-11 1.81726e-06 3.25226e-08
601 5 0.001 -0.0025 0 -0.04199 -0.0974618 0 -3.8e-09 3.20644e-07 1.59293e-34
602 5 0.001 -0.0025 0 -0.0413524 0.101377 0 -0.010145 6.14141e-07 4.16668e-09
603 5 0.001 -0.00248032 0 -0.0407168 1.83249e-10 0 -1.31287e-11 8.79925e-07 8.22628e-09
751 6 0.001 0.0025 0 -0.04199 -0.0594014 0 -3.8e-09 1.19092e-07 1.59293e-34
752 6 0.001 0.0025 0 -0.0413524 0.0627169 0 -0.0092203 2.24636e-07 3.47991e-09
753 6 0.001 0.002512 0 -0.0407165 1.20379e-10 0 1.35439e-10 3.16878e-07 6.91178e-09
901 7 0.001 0.0075 0 -0.04199 -0.0295355 0 -3.8e-09 2.94408e-08 1.59293e-34
902 7 0.001 0.0075 0 -0.0413524 0.0324319 0 -0.00837217 5.32611e-08 2.89041e-09
903 7 0.001 0.00750597 0 -0.0407162 -1.58685e-10 0 -1.61689e-10 7.19442e-08 5.76326e-09
1051 8 0.001 0.0125 0 -0.04199 -0.00735881 0 -3.8e-09 1.82754e-09 1.59293e-34
1052 8 0.001 0.0125 0 -0.0413524 0.0100915 0 -0.00860415 2.54544e-09 3.06841e-09
1053 8 0.001 0.0125015 0 -0.0407163 -1.49012e-11 0 4.57932e-11 2.66132e-09 6.13394e-09
1201 9 0.001 0.0175 0 -0.04199 0.0162351 0 -3.8e-09 8.89538e-09 1.59293e-34
1202 9 0.001 0.0175 0 -0.0413524 -0.0139106 0 -0.00772775 2.04647e-08 2.48649e-09
1203 9 0.001 0.0174967 0 -0.0407161 -1.94163e-10 0 -2.98811e-11 3.4995e-08 4.98152e-09
1351 10 0.001 0.0225 0 -0.04199 0.0379095 0 -3.8e-09 4.85024e-08 1.59293e-34
1352 10 0.001 0.0225 0 -0.0413524 -0.0360343 0 -0.00701914 1.01686e-07 2.05797e-09
1353 10 0.001 0.0224923 0 -0.040716 -2.04944e-10 0 1.78541e-11 1.59519e-07 4.12883e-09
4 1 0.001 -0.0223859 0 -0.0400886 -6.08416e-10 0 4.5381e-10 3.51929e-06 2.34821e-08
5 1 0.001 -0.0222727 0 -0.0394639 -1.01402e-09 0 6.9507e-10 3.41852e-06 2.30396e-08
154 2 0.001 -0.0173896 0 -0.0400886 6.8984e-12 0 5.14992e-10 3.26095e-06 2.63741e-08
155 2 0.001 -0.0172803 0 -0.0394634 -1.05702e-10 0 8.36556e-10 3.14392e-06 2.58293e-08
304 3 0.001 -0.0123994 0 -0.0400886 -4.42982e-10 0 -3.74895e-10 2.71202e-06 3.58627e-08
305 3 0.001 -0.0122996 0 -0.0394624 -7.75216e-10 0 -5.28597e-10 2.60823e-06 3.52976e-08
454 4 0.001 -0.00741805 0 -0.0400868 -5.54023e-11 0 8.25492e-11 1.73555e-06 3.20987e-08
455 4 0.001 -0.0073373 0 -0.0394576 -1.04952e-11 0 1.27658e-10 1.63482e-06 3.158e-08
604 5 0.001 -0.00244182 0 -0.040082 4.52659e-10 0 -1.52944e-11 7.97158e-07 8.01206e-09
605 5 0.001 -0.00238544 0 -0.0394486 7.31067e-10 0 -4.12353e-11 7.13805e-07 7.79918e-09
754 6 0.001 0.00253529 0 -0.0400808 3.34178e-10 0 2.61213e-10 2.7713e-07 6.8172e-09
755 6 0.001 0.00256914 0 -0.0394456 6.12365e-10 0 3.52315e-10 2.38586e-07 6.72611e-09
904 7 0.001 0.0075173 0 -0.0400801 -4.51852e-10 0 -3.05305e-10 5.6587e-08 5.72983e-09
905 7 0.001 0.00753339 0 -0.0394441 -8.32755e-10 0 -4.3374e-10 4.28369e-08 5.69999e-09
1054 8 0.001 0.0125039 0 -0.0400801 -4.35029e-11 0 8.29205e-11 8.61808e-10 6.12989e-09
1055 8 0.001 0.0125067 0 -0.039444 -7.96671e-11 0 1.18469e-10 5.99178e-10 6.1293e-09
1204 9 0.001 0.0174897 0 -0.0400799 -5.26957e-10 0 -4.9981e-11 4.3849e-08 4.99947e-09
1205 9 0.001 0.0174785 0 -0.0394437 -9.8096e-10 0 -9.5788e-11 5.34742e-08 5.01901e-09
1354 10 0.001 0.0224767 0 -0.0400798 -5.15216e-10 0 8.41232e-12 1.73423e-07 4.1545e-09
1355 10 0.001 0.0224526 0 -0.0394439 -9.17677e-10 0 2.64652e-11 1.87102e-07 4.17982e-09
6 1 0.001 -0.0221232 0 -0.038847 -1.41149e-09 0 9.65468e-10 3.28393e-06 2.24551e-08
7 1 0.001 -0.0219386 0 -0.0382395 -1.62976e-09 0 1.20441e-09 3.11876e-06 2.17482e-08
156 2 0.001 -0.0171361 0 -0.0388453 -3.0572e-10 0 1.16138e-09 2.99482e-06 2.51436e-08
157 2 0.001 -0.0169583 0 -0.038236 -5.45614e-10 0 1.50028e-09 2.81741e-06 2.43396e-08
306 3 0.001 -0.012168 0 -0.038842 -1.08531e-09 0 -6.81541e-10 2.4734e-06 3.45703e-08
307 3 0.001 -0.0120057 0 -0.0382289 -1.37211e-09 0 -7.945e-10 2.31137e-06 3.37062e-08
456 4 0.001 -0.00723119 0 -0.0388322 1.76429e-10 0 1.14359e-10 1.51773e-06 3.09824e-08
457 4 0.001 -0.0071008 0 -0.0382113 5.09129e-10 0 6.62986e-11 1.38731e-06 3.03235e-08
606 5 0.001 -0.0023122 0 -0.0388168 8.9857e-10 0 -3.88193e-11 6.30957e-07 7.59043e-09
607 5 0.001 -0.00222314 0 -0.0381871 1.01367e-09 0 -1.42521e-11 5.4968e-07 7.3884e-09
756 6 0.001 0.00261276 0 -0.038811 8.8756e-10 0 4.53884e-10 2.01697e-07 6.6395e-09
757 6 0.001 0.00266535 0 -0.0381771 1.17356e-09 0 5.35342e-10 1.66891e-07 6.5583e-09
906 7 0.001 0.0075536 0 -0.0388083 -1.27651e-09 0 -5.48495e-10 3.08391e-08 5.67401e-09
907 7 0.001 0.00757731 0 -0.0381725 -1.75626e-09 0 -6.47648e-10 2.07199e-08 5.65214e-09
1056 8 0.001 0.0125093 0 -0.0388078 -1.01952e-10 0 1.66793e-10 1.87629e-09 6.13216e-09
1057 8 0.001 0.0125112 0 -0.0381717 -1.02386e-10 0 1.90705e-10 4.67925e-09 6.13846e-09
1207 9 0.001 0.0174417 0 -0.0381716 -1.95027e-09 0 -1.60743e-10 7.46502e-08 5.06215e-09
1206 9 0.001 0.0174626 0 -0.0388076 -1.45166e-09 0 -1.25263e-10 6.37753e-08 5.03997e-09
1356 10 0.001 0.0224199 0 -0.0388083 -1.29807e-09 0 2.27329e-11 2.00432e-07 4.20458e-09
1357 10 0.001 0.0223782 0 -0.0381733 -1.59995e-09 0 3.52981e-11 2.13289e-07 4.22852e-09
8 1 0.001 -0.0217204 0 -0.0376433 -1.71653e-09 0 1.3771e-09 2.92695e-06 2.09414e-08
9 1 0.001 -0.0214702 0 -0.0370597 -1.53612e-09 0 1.43128e-09 2.71294e-06 2.00593e-08
10 1 0.001 -0.02119 0 -0.0364898 -1.22012e-09 0 1.39136e-09 2.48158e-06 1.91271e-08
158 2 0.001 -0.0167484 0 -0.037637 -8.35421e-10 0 1.82625e-09 2.61605e-06 2.3443e-08
159 2 0.001 -0.0165081 0 -0.0370494 -1.04712e-09 0 2.15752e-09 2.39559e-06 2.24807e-08
160 2 0.001 -0.0162394 0 -0.0364741 -1.16637e-09 0 2.43897e-09 2.16121e-06 2.14798e-08
308 3 0.001 -0.0118142 0 -0.0376243 -1.62204e-09 0 -8.96925e-10 2.12665e-06 3.27346e-08
309 3 0.001 -0.0115949 0 -0.037029 -1.79805e-09 0 -9.17706e-10 1.92431e-06 3.16866e-08
310 3 0.001 -0.0113498 0 -0.036444 -1.89803e-09 0 -9.55521e-10 1.70978e-06 3.05942e-08
458 4 0.001 -0.00694739 0 -0.0375957 9.65794e-10 0 4.45692e-12 1.24692e-06 2.96221e-08
459 4 0.001 -0.00677234 0 -0.0369859 1.5463e-09 0 -1.18112e-10 1.10011e-06 2.88975e-08
460 4 0.001 -0.00657719 0 -0.0363821 2.16661e-09 0 -3.157e-10 9.50528e-07 2.81684e-08
608 5 0.001 -0.00211938 0 -0.0375596 1.00405e-09 0 7.05258e-11 4.71002e-07 7.19542e-09
609 5 0.001 -0.00200207 0 -0.0369344 8.63475e-10 0 1.47922e-10 3.95895e-07 7.01358e-09
610 5 0.001 -0.00187238 0 -0.0363117 6.27777e-10 0 2.42029e-10 3.25274e-07 6.84473e-09
758 6 0.001 0.0027261 0 -0.0375439 1.41342e-09 0 6.28649e-10 1.34567e-07 6.48334e-09
759 6 0.001 0.00279415 0 -0.0369114 1.628e-09 0 6.80394e-10 1.05094e-07 6.41536e-09
760 6 0.001 0.00286864 0 -0.0362797 1.73208e-09 0 7.38076e-10 7.88039e-08 6.35502e-09
908 7 0.001 0.00760385 0 -0.0375368 -2.20808e-09 0 -7.39518e-10 1.25856e-08 5.63459e-09
909 7 0.001 0.00763258 0 -0.0369013 -2.63819e-09 0 -7.99985e-10 6.52121e-09 5.62153e-09
910 7 0.001 0.00766284 0 -0.0362658 -2.98476e-09 0 -8.46911e-10 2.59018e-09 5.61307e-09
1058 8 0.001 0.0125117 0 -0.0375355 -7.49032e-11 0 2.24973e-10 8.9775e-09 6.14813e-09
1059 8 0.001 0.0125105 0 -0.0368993 9.2698e-12 0 2.4159e-10 1.47242e-08 6.16107e-09
1060 8 0.001 0.0125068 0 -0.0362632 1.3425e-10 0 2.64749e-10 2.18565e-08 6.17714e-09
1208 9 0.001 0.0174153 0 -0.0375359 -2.39464e-09 0 -1.98357e-10 8.59905e-08 5.08533e-09
1209 9 0.001 0.0173831 0 -0.0369004 -2.8086e-09 0 -2.35183e-10 9.76831e-08 5.10928e-09
1210 9 0.001 0.0173445 0 -0.0362653 -3.11767e-09 0 -2.67637e-10 1.09611e-07 5.13377e-09
1358 10 0.001 0.0223272 0 -0.0375389 -1.79424e-09 0 4.64984e-11 2.25555e-07 4.25143e-09
1359 10 0.001 0.0222667 0 -0.0369054 -1.84772e-09 0 4.85866e-11 2.37116e-07 4.27308e-09
1360 10 0.001 0.0221965 0 -0.0362729 -1.73316e-09 0 8.64934e-11 2.47864e-07 4.29325e-09
11 1 0.001 -0.0208818 0 -0.0359345 -6.98003e-10 0 1.22124e-09 2.23794e-06 1.81694e-08
12 1 0.001 -0.0205476 0 -0.0353944 -1.50489e-10 0 9.73232e-10 1.98722e-06 1.72096e-08
13 1 0.001 -0.0201897 0 -0.0348696 3.84881e-10 0 6.72889e-10 1.73456e-06 1.62688e-08
161 2 0.001 -0.0159443 0 -0.035912 -1.14265e-09 0 2.66191e-09 1.91825e-06 2.04663e-08
162 2 0.001 -0.0156248 0 -0.0353632 -9.90844e-10 0 2.70776e-09 1.67209e-06 1.94645e-08
163 2 0.001 -0.0152832 0 -0.0348278 -7.42072e-10 0 2.70491e-09 1.42798e-06 1.84959e-08
311 3 0.001 -0.0110807 0 -0.0358694 -1.93585e-09 0 -9.45483e-10 1.48869e-06 2.94883e-08
312 3 0.001 -0.0107896 0 -0.0353057 -1.81856e-09 0 -1.00136e-09 1.26669e-06 2.83985e-08
313 3 0.001 -0.0104787 0 -0.0347525 -1.63447e-09 0 -1.09853e-09 1.04932e-06 2.73514e-08
461 4 0.001 -0.00636355 0 -0.0357846 2.74461e-09 0 -5.41644e-10 8.01826e-07 2.74529e-08
462 4 0.001 -0.0061331 0 -0.0351934 3.24388e-09 0 -7.3595e-10 6.57573e-07 2.67676e-08
611 5 0.001 -0.00173153 0 -0.0356914 3.22349e-10 0 3.29675e-10 2.59983e-07 6.69045e-09
612 5 0.001 -0.00158076 0 -0.0350735 8.50786e-12 0 3.98286e-10 2.00787e-07 6.5521e-09
761 6 0.001 0.00294867 0 -0.0356486 1.69582e-09 0 7.71691e-10 5.59916e-08 6.3029e-09
762 6 0.001 0.00303337 0 -0.0350181 1.50261e-09 0 8.50149e-10 3.69112e-08 6.25947e-09
911 7 0.001 0.00769397 0 -0.0356303 -3.26338e-09 0 -8.59807e-10 8.33459e-10 5.60929e-09
912 7 0.001 0.0077253 0 -0.0349948 -3.42066e-09 0 -8.83906e-10 1.26937e-09 5.61022e-09
1061 8 0.001 0.0125002 0 -0.0356271 2.87256e-10 0 2.9006e-10 3.02964e-08 6.1962e-09
1062 8 0.001 0.0124901 0 -0.034991 4.33327e-10 0 3.04471e-10 3.99514e-08 6.21803e-09
1211 9 0.001 0.0172994 0 -0.0356306 -3.37606e-09 0 -3.01485e-10 1.21654e-07 5.15856e-09
1212 9 0.001 0.0172472 0 -0.0349965 -3.49504e-09 0 -3.18807e-10 1.3369e-07 5.1834e-09
1362 10 0.001 0.0220261 0 -0.0350116 -1.0816e-09 0 2.13091e-10 2.6653e-07 4.3284e-09
1361 10 0.001 0.0221164 0 -0.0356416 -1.45169e-09 0 1.3442e-10 2.577e-07 4.31175e-09
14 1 0.001 -0.0198103 0 -0.03436 8.69192e-10 0 3.60213e-10 1.48497e-06 1.53654e-08
15 1 0.001 -0.0194115 0 -0.0338654 1.28142e-09 0 8.74163e-11 1.24322e-06 1.45149e-08
16 1 0.001 -0.0189956 0 -0.033385 1.54525e-09 0 -6.6636e-11 1.01374e-06 1.37301e-08
164 2 0.001 -0.0149216 0 -0.0343057 -4.41088e-10 0 2.65697e-09 1.19098e-06 1.75792e-08
165 2 0.001 -0.0145422 0 -0.0337962 -1.91886e-12 0 2.50848e-09 9.65823e-07 1.67299e-08
166 2 0.001 -0.0141472 0 -0.0332987 4.4636e-10 0 2.25877e-09 7.56845e-07 1.59604e-08
314 3 0.001 -0.01015 0 -0.0342096 -1.38272e-09 0 -1.21613e-09 8.41886e-07 2.63704e-08
315 3 0.001 -0.00980583 0 -0.0336764 -1.07035e-09 0 -1.3565e-09 6.49285e-07 2.54757e-08
463 4 0.001 -0.00588762 0 -0.0346081 3.64001e-09 0 -8.87996e-10 5.21169e-07 2.61275e-08
464 4 0.001 -0.0056289 0 -0.0340286 3.7759e-09 0 -9.71071e-10 3.95772e-07 2.55459e-08
465 4 0.001 -0.00535877 0 -0.0334543 3.71265e-09 0 -9.85647e-10 2.84239e-07 2.50342e-08
613 5 0.001 -0.0014213 0 -0.0344576 -2.59953e-10 0 4.49752e-10 1.48371e-07 6.4308e-09
614 5 0.001 -0.00125443 0 -0.0338438 -4.56448e-10 0 4.86411e-10 1.03333e-07 6.32747e-09
615 5 0.001 -0.00108142 0 -0.0332316 -5.57246e-10 0 4.90578e-10 6.61798e-08 6.24287e-09
763 6 0.001 0.00312182 0 -0.0343882 1.17205e-09 0 8.96711e-10 2.17741e-08 6.22512e-09
764 6 0.001 0.00321311 0 -0.0337586 7.56803e-10 0 9.40926e-10 1.07472e-08 6.20015e-09
913 7 0.001 0.00775616 0 -0.0343594 -3.45106e-09 0 -8.98052e-10 3.89336e-09 5.61586e-09
914 7 0.001 0.00778589 0 -0.0337239 -3.30687e-09 0 -9.10158e-10 8.67807e-09 5.62615e-09
1063 8 0.001 0.012476 0 -0.034355 5.44031e-10 0 2.95624e-10 5.07154e-08 6.24242e-09
1064 8 0.001 0.0124574 0 -0.0337192 6.01819e-10 0 3.11741e-10 6.24697e-08 6.26911e-09
1213 9 0.001 0.0171878 0 -0.034363 -3.51182e-09 0 -3.38812e-10 1.45598e-07 5.20803e-09
1214 9 0.001 0.0171207 0 -0.0337303 -3.42815e-09 0 -3.20469e-10 1.57257e-07 5.2322e-09
1363 10 0.001 0.0219256 0 -0.0343832 -5.62349e-10 0 3.1206e-10 2.74272e-07 4.34302e-09
1364 10 0.001 0.0218147 0 -0.0337566 -4.1306e-11 0 4.10525e-10 2.80853e-07 4.35546e-09
1365 10 0.001 0.0216933 0 -0.0331319 5.10996e-10 0 5.38993e-10 2.86211e-07 4.36561e-09
17 1 0.001 -0.0185646 0 -0.032918 1.72341e-09 0 -9.59545e-11 8.00576e-07 1.30206e-08
18 1 0.001 -0.0181206 0 -0.0324633 1.71774e-09 0 3.10728e-11 6.0737e-07 1.23938e-08
19 1 0.001 -0.0176656 0 -0.0320195 1.56097e-09 0 2.55788e-10 4.37288e-07 1.18548e-08
167 2 0.001 -0.0137388 0 -0.0328121 9.10257e-10 0 1.94727e-09 5.67949e-07 1.52805e-08
168 2 0.001 -0.0133189 0 -0.0323352 1.3985e-09 0 1.58328e-09 4.02548e-07 1.46973e-08
169 2 0.001 -0.0128896 0 -0.0318668 1.90877e-09 0 1.19432e-09 2.63546e-07 1.4216e-08
316 3 0.001 -0.00944821 0 -0.0331521 -6.87056e-10 0 -1.55848e-09 4.75974e-07 2.46838e-08
317 3 0.001 -0.00907933 0 -0.0326355 -2.59962e-10 0 -1.72157e-09 3.25866e-07 2.4008e-08
318 3 0.001 -0.00870131 0 -0.0321256 1.15405e-10 0 -1.83457e-09 2.02279e-07 2.34586e-08
466 4 0.001 -0.00507911 0 -0.0328845 3.37295e-09 0 -9.43936e-10 1.8907e-07 2.46016e-08
467 4 0.001 -0.00479176 0 -0.0323185 2.90286e-09 0 -7.95138e-10 1.12371e-07 2.42557e-08
468 4 0.001 -0.00449862 0 -0.0317555 2.42133e-09 0 -5.78938e-10 5.58209e-08 2.40023e-08
616 5 0.001 -0.000903544 0 -0.0326209 -5.31947e-10 0 5.09702e-10 3.7324e-08 6.17755e-09
617 5 0.001 -0.000722092 0 -0.0320111 -3.95352e-10 0 4.67436e-10 1.70844e-08 6.13194e-09
765 6 0.001 0.00330633 0 -0.0331293 3.1279e-10 0 9.52843e-10 3.95158e-09 6.18479e-09
766 6 0.001 0.00340053 0 -0.0325002 -1.85744e-10 0 9.86478e-10 1.46177e-09 6.17916e-09
767 6 0.001 0.00349481 0 -0.0318711 -6.63718e-10 0 1.00788e-09 3.30502e-09 6.18331e-09
915 7 0.001 0.00781383 0 -0.0330883 -2.98043e-09 0 -8.90526e-10 1.55736e-08 5.64101e-09
916 7 0.001 0.00783933 0 -0.0324526 -2.48815e-09 0 -8.75102e-10 2.45077e-08 5.66028e-09
917 7 0.001 0.00786172 0 -0.0318167 -1.86014e-09 0 -8.39291e-10 3.5387e-08 5.6838e-09
1065 8 0.001 0.0124338 0 -0.0330835 5.92657e-10 0 3.02543e-10 7.50844e-08 6.29782e-09
1066 8 0.001 0.0124047 0 -0.032448 5.1238e-10 0 2.94093e-10 8.84196e-08 6.32823e-09
1067 8 0.001 0.0123697 0 -0.0318128 3.61166e-10 0 2.78836e-10 1.02327e-07 6.36003e-09
1215 9 0.001 0.0170457 0 -0.0330985 -3.24169e-09 0 -3.17271e-10 1.68548e-07 5.25566e-09
1216 9 0.001 0.0169625 0 -0.0324677 -2.94811e-09 0 -2.82076e-10 1.79355e-07 5.27816e-09
1217 9 0.001 0.0168709 0 -0.0318381 -2.61039e-09 0 -2.44811e-10 1.89567e-07 5.29947e-09
1366 10 0.001 0.0215614 0 -0.0325093 9.53597e-10 0 6.39885e-10 2.90295e-07 4.37335e-09
1367 10 0.001 0.0214189 0 -0.0318891 1.27487e-09 0 7.26156e-10 2.93066e-07 4.3786e-09
20 1 0.001 -0.0172015 0 -0.0315852 1.31285e-09 0 5.63401e-10 2.93033e-07 1.1407e-08
21 1 0.001 -0.0167302 0 -0.0311587 9.45136e-10 0 1.00362e-09 1.76829e-07 1.10526e-08
22 1 0.001 -0.0162533 0 -0.0307384 6.02222e-10 0 1.44809e-09 9.04235e-08 1.07926e-08
23 1 0.001 -0.0157727 0 -0.0303223 2.29776e-10 0 1.88577e-09 3.50908e-08 1.06278e-08
170 2 0.001 -0.012453 0 -0.0314051 2.35452e-09 0 8.24692e-10 1.5332e-07 1.38399e-08
171 2 0.001 -0.0120108 0 -0.0309488 2.65573e-09 0 4.89441e-10 7.37153e-08 1.35715e-08
172 2 0.001 -0.011565 0 -0.0304959 2.90877e-09 0 1.83771e-10 2.60425e-08 1.3412e-08
319 3 0.001 -0.00831624 0 -0.0316209 3.94027e-10 0 -1.90803e-09 1.07896e-07 2.30434e-08
320 3 0.001 -0.00792621 0 -0.03112 5.1998e-10 0 -1.8364e-09 4.47341e-08 2.27676e-08
321 3 0.001 -0.00753327 0 -0.0306214 6.26774e-10 0 -1.72882e-09 1.41311e-08 2.26345e-08
469 4 0.001 -0.00420156 0 -0.0311946 1.88199e-09 0 -3.79852e-10 2.06448e-08 2.38453e-08
470 4 0.001 -0.00390246 0 -0.0306347 1.44137e-09 0 -2.29228e-10 7.60075e-09 2.37872e-08
618 5 0.001 -0.000538353 0 -0.0314021 -1.35918e-10 0 3.85506e-10 5.68282e-09 6.10631e-09
619 5 0.001 -0.000353618 0 -0.0307933 1.5678e-10 0 2.70312e-10 3.24368e-09 6.10083e-09
620 5 0.001 -0.000169178 0 -0.0301845 5.48818e-10 0 1.62808e-10 9.79357e-09 6.11553e-09
768 6 0.001 0.00358822 0 -0.0312418 -1.03086e-09 0 1.03683e-09 9.46115e-09 6.19722e-09
769 6 0.001 0.00367986 0 -0.0306123 -1.31562e-09 0 1.04621e-09 1.98627e-08 6.22075e-09
918 7 0.001 0.00788037 0 -0.0311808 -1.20383e-09 0 -8.14884e-10 4.8097e-08 5.71134e-09
919 7 0.001 0.00789465 0 -0.0305448 -4.91155e-10 0 -7.34335e-10 6.25038e-08 5.74264e-09
1068 8 0.001 0.0123283 0 -0.031178 1.37107e-10 0 2.50063e-10 1.16651e-07 6.39287e-09
1069 8 0.001 0.01228 0 -0.0305437 -1.63939e-10 0 1.96584e-10 1.31231e-07 6.42638e-09
1218 9 0.001 0.0167706 0 -0.0312097 -2.19816e-09 0 -1.97498e-10 1.9908e-07 5.31936e-09
1219 9 0.001 0.0166615 0 -0.0305829 -1.77767e-09 0 -1.37774e-10 2.07795e-07 5.33761e-09
1368 10 0.001 0.0212659 0 -0.0312714 1.37962e-09 0 7.70918e-10 2.94499e-07 4.38132e-09
1369 10 0.001 0.0211022 0 -0.0306564 1.27336e-09 0 7.53287e-10 2.94579e-07 4.38146e-09
24 1 0.001 -0.0152901 0 -0.0299085 -5.24972e-11 0 2.18143e-09 1.16348e-08 1.05583e-08
25 1 0.001 -0.0148071 0 -0.0294952 -1.59314e-10 0 2.29556e-09 2.03935e-08 1.05842e-08
26 1 0.001 -0.0143253 0 -0.0290804 -5.47248e-11 0 2.21549e-09 6.1241e-08 1.07055e-08
173 2 0.001 -0.0111174 0 -0.0300448 3.07639e-09 0 -1.27012e-11 1.10774e-08 1.33621e-08
174 2 0.001 -0.01067 0 -0.0295935 3.1588e-09 0 -8.64611e-11 2.90619e-08 1.34221e-08
175 2 0.001 -0.0102244 0 -0.0291404 3.14656e-09 0 -1.00427e-10 7.9705e-08 1.35916e-08
322 3 0.001 -0.00713947 0 -0.0301235 6.82202e-10 0 -1.61561e-09 1.67296e-08 2.26458e-08
323 3 0.001 -0.00674685 0 -0.0296246 7.24524e-10 0 -1.52524e-09 5.24753e-08 2.28013e-08
324 3 0.001 -0.00635746 0 -0.0291232 7.92886e-10 0 -1.42352e-09 1.20616e-07 2.30991e-08
471 4 0.001 -0.00360321 0 -0.0300749 1.09205e-09 0 -9.87986e-11 1.6969e-08 2.38289e-08
472 4 0.001 -0.00330569 0 -0.0295141 7.72011e-10 0 3.09755e-11 4.85485e-08 2.39697e-08
473 4 0.001 -0.00301177 0 -0.0289515 6.38309e-10 0 6.24339e-11 1.01659e-07 2.42075e-08
621 5 0.001 1.3675e-05 0 -0.0295752 9.3525e-10 0 1.09629e-11 2.52611e-08 6.15032e-09
622 5 0.001 0.00019365 0 -0.028965 1.28202e-09 0 -6.65062e-11 4.94772e-08 6.20498e-09
770 6 0.001 0.00376879 0 -0.0299824 -1.45845e-09 0 1.05368e-09 3.43955e-08 6.2537e-09
771 6 0.001 0.00385411 0 -0.029352 -1.48241e-09 0 1.03218e-09 5.28993e-08 6.29578e-09
772 6 0.001 0.0039349 0 -0.028721 -1.34585e-09 0 9.92285e-10 7.51694e-08 6.34662e-09
920 7 0.001 0.00790392 0 -0.0299086 1.25037e-10 0 -6.69864e-10 7.8455e-08 5.77739e-09
921 7 0.001 0.00790759 0 -0.0292724 6.48479e-10 0 -5.86731e-10 9.5781e-08 5.81525e-09
922 7 0.001 0.00790506 0 -0.0286362 9.90465e-10 0 -4.75275e-10 1.14297e-07 5.85585e-09
1070 8 0.001 0.0122244 0 -0.0299101 -5.27591e-10 0 1.40734e-10 1.45904e-07 6.46019e-09
1071 8 0.001 0.0121613 0 -0.0292771 -9.86865e-10 0 8.04379e-11 1.60502e-07 6.49392e-09
1072 8 0.001 0.0120901 0 -0.028645 -1.47577e-09 0 2.85316e-13 1.74862e-07 6.52718e-09
1220 9 0.001 0.0165433 0 -0.0299577 -1.3506e-09 0 -5.52328e-11 2.15622e-07 5.35403e-09
1222 9 0.001 0.0162795 0 -0.0287129 -5.31912e-10 0 1.27047e-10 2.28296e-07 5.38067e-09
1221 9 0.001 0.0164161 0 -0.0293343 -9.39356e-10 0 2.26488e-11 2.22479e-07 5.36843e-09
1372 10 0.001 0.0205486 0 -0.0288295 -4.05518e-10 0 2.92061e-10 2.8676e-07 4.36661e-09
1370 10 0.001 0.0209281 0 -0.0300444 9.23401e-10 0 6.67567e-10 2.93305e-07 4.37904e-09
1371 10 0.001 0.0207435 0 -0.0294353 3.7146e-10 0 5.19493e-10 2.90691e-07 4.37407e-09
27 1 0.001 -0.0138465 0 -0.0286622 2.56318e-10 0 1.80389e-09 1.33586e-07 1.09221e-08
28 1 0.001 -0.0133725 0 -0.0282388 6.71238e-10 0 1.25494e-09 2.3637e-07 1.12334e-08
29 1 0.001 -0.0129048 0 -0.0278083 1.20577e-09 0 5.63446e-10 3.68063e-07 1.16387e-08
30 1 0.001 -0.0124454 0 -0.027369 1.7388e-09 0 -1.06723e-10 5.26657e-07 1.21364e-08
176 2 0.001 -0.00978267 0 -0.0286836 3.04046e-09 0 3.56286e-11 1.62182e-07 1.38699e-08
177 2 0.001 -0.00934659 0 -0.0282215 2.88163e-09 0 2.18817e-10 2.75134e-07 1.42557e-08
178 2 0.001 -0.00891811 0 -0.0277523 2.65683e-09 0 4.41256e-10 4.16666e-07 1.47465e-08
179 2 0.001 -0.00849919 0 -0.0272746 2.43743e-09 0 6.28547e-10 5.84352e-07 1.53388e-08
325 3 0.001 -0.00597336 0 -0.0286178 8.04298e-10 0 -1.34387e-09 2.19709e-07 2.35357e-08
326 3 0.001 -0.00559663 0 -0.0281069 7.79717e-10 0 -1.2645e-09 3.47629e-07 2.41053e-08
327 3 0.001 -0.00522936 0 -0.0275892 6.51606e-10 0 -1.12512e-09 5.01594e-07 2.48e-08
474 4 0.001 -0.00272335 0 -0.0283861 6.30564e-10 0 1.09899e-11 1.75151e-07 2.45386e-08
475 4 0.001 -0.00244229 0 -0.027817 8.00817e-10 0 -1.34785e-10 2.67419e-07 2.49573e-08
476 4 0.001 -0.00217047 0 -0.0272435 1.09011e-09 0 -3.32197e-10 3.76426e-07 2.54567e-08
623 5 0.001 0.00036946 0 -0.0283537 1.55762e-09 0 -1.35279e-10 8.21757e-08 6.27917e-09
624 5 0.001 0.000539821 0 -0.0277408 1.72615e-09 0 -1.89576e-10 1.22995e-07 6.37242e-09
625 5 0.001 0.000703455 0 -0.027126 1.78665e-09 0 -2.00967e-10 1.71477e-07 6.48406e-09
773 6 0.001 0.00401027 0 -0.0280894 -1.048e-09 0 8.93108e-10 1.00958e-07 6.40575e-09
774 6 0.001 0.00407934 0 -0.027457 -6.1135e-10 0 7.59095e-10 1.29976e-07 6.47262e-09
923 7 0.001 0.00789574 0 -0.0280001 1.11921e-09 0 -3.66516e-10 1.33804e-07 5.89878e-09
924 7 0.001 0.0078791 0 -0.0273642 1.01462e-09 0 -2.58715e-10 1.54092e-07 5.94359e-09
1073 8 0.001 0.0120106 0 -0.0280138 -2.00818e-09 0 -9.74762e-11 1.88819e-07 6.5596e-09
1074 8 0.001 0.0119225 0 -0.0273839 -2.54249e-09 0 -1.99979e-10 2.02214e-07 6.59078e-09
1224 9 0.001 0.0159782 0 -0.0274766 1.48215e-10 0 2.92948e-10 2.36577e-07 5.3981e-09
1223 9 0.001 0.0161336 0 -0.0280936 -1.70268e-10 0 2.00153e-10 2.33011e-07 5.39059e-09
1373 10 0.001 0.0203434 0 -0.0282271 -1.28241e-09 0 1.90226e-11 2.81549e-07 4.35674e-09
1374 10 0.001 0.0201282 0 -0.0276283 -2.25417e-09 0 -3.0286e-10 2.7511e-07 4.34455e-09
31 1 0.001 -0.0119962 0 -0.0269195 2.26107e-09 0 -7.30658e-10 7.09669e-07 1.27236e-08
32 1 0.001 -0.011559 0 -0.0264582 2.66965e-09 0 -1.17272e-09 9.14139e-07 1.33961e-08
33 1 0.001 -0.0111359 0 -0.0259841 2.93214e-09 0 -1.45079e-09 1.13665e-06 1.41476e-08
180 2 0.001 -0.00809188 0 -0.0267871 2.27043e-09 0 7.96584e-10 7.75241e-07 1.60273e-08
181 2 0.001 -0.00769824 0 -0.0262885 2.15427e-09 0 8.83297e-10 9.85874e-07 1.68045e-08
182 2 0.001 -0.00732041 0 -0.0257779 2.09709e-09 0 9.07514e-10 1.21231e-06 1.76605e-08
328 3 0.001 -0.0048737 0 -0.0270635 4.97255e-10 0 -9.98371e-10 6.78189e-07 2.56089e-08
329 3 0.001 -0.00453178 0 -0.0265289 2.81931e-10 0 -8.69853e-10 8.73412e-07 2.65183e-08
330 3 0.001 -0.00420576 0 -0.0259844 8.68699e-11 0 -7.40712e-10 1.08274e-06 2.7511e-08
477 4 0.001 -0.00190975 0 -0.0266648 1.47612e-09 0 -5.53512e-10 4.99734e-07 2.60275e-08
478 4 0.001 -0.00166197 0 -0.0260806 1.85989e-09 0 -7.83552e-10 6.3454e-07 2.66587e-08
626 5 0.001 0.000859094 0 -0.0265093 1.73998e-09 0 -2.65711e-10 2.27076e-07 6.61328e-09
627 5 0.001 0.00100548 0 -0.0258902 1.61964e-09 0 -2.86994e-10 2.89152e-07 6.75906e-09
775 6 0.001 0.00414123 0 -0.0268239 -5.59466e-11 0 6.24047e-10 1.61897e-07 6.54657e-09
776 6 0.001 0.0041951 0 -0.0261901 5.28418e-10 0 4.86762e-10 1.96357e-07 6.62688e-09
925 7 0.001 0.00785457 0 -0.0267285 6.67322e-10 0 -1.50278e-10 1.74941e-07 5.98982e-09
926 7 0.001 0.00782167 0 -0.0260931 1.39304e-10 0 -7.67721e-11 1.96124e-07 6.03698e-09
1075 8 0.001 0.0118254 0 -0.0267552 -3.10158e-09 0 -3.18904e-10 2.14893e-07 6.62036e-09
1076 8 0.001 0.0117191 0 -0.0261281 -3.64573e-09 0 -4.47882e-10 2.26711e-07 6.64799e-09
1225 9 0.001 0.0158134 0 -0.0268621 4.27453e-10 0 3.66621e-10 2.38954e-07 5.40311e-09
1226 9 0.001 0.0156392 0 -0.0262502 6.49224e-10 0 4.33717e-10 2.4012e-07 5.40557e-09
1227 9 0.001 0.0154554 0 -0.0256411 7.73623e-10 0 4.99689e-10 2.4006e-07 5.40544e-09
1375 10 0.001 0.0199031 0 -0.027033 -3.19517e-09 0 -6.12869e-10 2.67501e-07 4.33017e-09
1377 10 0.001 0.019424 0 -0.0258539 -4.78595e-09 0 -1.18519e-09 2.49073e-07 4.29544e-09
1376 10 0.001 0.0196682 0 -0.0264415 -4.07019e-09 0 -9.21821e-10 2.58794e-07 4.31375e-09
34 1 0.001 -0.010729 0 -0.0254961 2.98784e-09 0 -1.59406e-09 1.37333e-06 1.49694e-08
35 1 0.001 -0.0103405 0 -0.0249934 2.83676e-09 0 -1.55273e-09 1.61991e-06 1.58504e-08
36 1 0.001 -0.00997252 0 -0.0244756 2.59486e-09 0 -1.44207e-09 1.87178e-06 1.67762e-08
183 2 0.001 -0.00696055 0 -0.0252545 2.09887e-09 0 8.87874e-10 1.45016e-06 1.85827e-08
184 2 0.001 -0.00662087 0 -0.0247179 2.1364e-09 0 8.14408e-10 1.69467e-06 1.95551e-08
331 3 0.001 -0.0038978 0 -0.0254296 -1.93768e-10 0 -6.19167e-10 1.30118e-06 2.85664e-08
332 3 0.001 -0.00361003 0 -0.0248642 -5.27123e-10 0 -5.27051e-10 1.52341e-06 2.96605e-08
333 3 0.001 -0.00334452 0 -0.024288 -8.30634e-10 0 -4.41612e-10 1.74385e-06 3.07662e-08
479 4 0.001 -0.00142893 0 -0.0254903 2.13356e-09 0 -9.62527e-10 7.77732e-07 2.73376e-08
480 4 0.001 -0.0012124 0 -0.0248938 2.26888e-09 0 -1.05492e-09 9.25946e-07 2.80493e-08
481 4 0.001 -0.0010141 0 -0.0242911 2.2897e-09 0 -1.06697e-09 1.07564e-06 2.87773e-08
628 5 0.001 0.00114137 0 -0.0252689 1.38178e-09 0 -2.38444e-10 3.56983e-07 6.92018e-09
629 5 0.001 0.00126554 0 -0.024645 1.07488e-09 0 -1.85168e-10 4.29766e-07 7.09517e-09
777 6 0.001 0.00424011 0 -0.0255556 1.12551e-09 0 3.5749e-10 2.32962e-07 6.71272e-09
778 6 0.001 0.00427546 0 -0.0249205 1.68094e-09 0 2.09676e-10 2.71287e-07 6.80319e-09
779 6 0.001 0.00430038 0 -0.0242849 2.11985e-09 0 4.93803e-11 3.10886e-07 6.8973e-09
927 7 0.001 0.00777988 0 -0.0254584 -5.32072e-10 0 1.10317e-11 2.17407e-07 6.08454e-09
928 7 0.001 0.00772876 0 -0.0248242 -1.29238e-09 0 7.366e-11 2.38558e-07 6.13199e-09
929 7 0.001 0.00766787 0 -0.024191 -2.10132e-09 0 1.11562e-10 2.5934e-07 6.17879e-09
1078 8 0.001 0.011478 0 -0.024879 -4.70506e-09 0 -7.10632e-10 2.47227e-07 6.6961e-09
1079 8 0.001 0.0113429 0 -0.0242574 -5.13291e-09 0 -8.47008e-10 2.55688e-07 6.71599e-09
1077 8 0.001 0.0116034 0 -0.0255026 -4.18973e-09 0 -5.69256e-10 2.37531e-07 6.67334e-09
1228 9 0.001 0.0152623 0 -0.0250348 8.50626e-10 0 5.24308e-10 2.38777e-07 5.40273e-09
1229 9 0.001 0.0150598 0 -0.0244317 8.10038e-10 0 5.30986e-10 2.36283e-07 5.39746e-09
1379 10 0.001 0.0189079 0 -0.0246905 -5.60837e-09 0 -1.44984e-09 2.26956e-07 4.25395e-09
1380 10 0.001 0.0186368 0 -0.0241147 -5.61317e-09 0 -1.42043e-09 2.14768e-07 4.23118e-09
1378 10 0.001 0.0191704 0 -0.0252702 -5.28885e-09 0 -1.36854e-09 2.38427e-07 4.27545e-09
37 1 0.001 -0.00962725 0 -0.0239424 2.15372e-09 0 -1.2211e-09 2.12402e-06 1.77298e-08
38 1 0.001 -0.00930691 0 -0.023394 1.61912e-09 0 -9.89995e-10 2.37154e-06 1.86912e-08
39 1 0.001 -0.00901365 0 -0.0228307 1.00043e-09 0 -7.61669e-10 2.60915e-06 1.96381e-08
185 2 0.001 -0.00630354 0 -0.0241679 2.16606e-09 0 7.11546e-10 1.94077e-06 2.05589e-08
186 2 0.001 -0.00601073 0 -0.0236045 2.28499e-09 0 5.42578e-10 2.18316e-06 2.15722e-08
187 2 0.001 -0.00574456 0 -0.0230281 2.46195e-09 0 3.4067e-10 2.41649e-06 2.25707e-08
334 3 0.001 -0.0031033 0 -0.0237013 -1.09365e-09 0 -3.78801e-10 1.95685e-06 3.18538e-08
335 3 0.001 -0.00288826 0 -0.0231045 -1.23219e-09 0 -3.82402e-10 2.15679e-06 3.2892e-08
482 4 0.001 -0.000835651 0 -0.0236823 2.21118e-09 0 -1.05313e-09 1.22316e-06 2.95039e-08
483 4 0.001 -0.000678586 0 -0.0230676 2.06995e-09 0 -1.05579e-09 1.36485e-06 3.02104e-08
630 5 0.001 0.0013768 0 -0.0240188 7.02753e-10 0 -1.41174e-10 5.06625e-07 7.28234e-09
631 5 0.001 0.00147397 0 -0.0233902 3.50896e-10 0 -1.26132e-10 5.86618e-07 7.47973e-09
632 5 0.001 0.00155593 0 -0.0227596 1.18769e-10 0 -1.4358e-10 6.68745e-07 7.68513e-09
780 6 0.001 0.00431411 0 -0.023649 2.45809e-09 0 -7.13765e-11 3.5129e-07 6.994e-09
781 6 0.001 0.00431595 0 -0.0230129 2.63837e-09 0 -2.12368e-10 3.92019e-07 7.09215e-09
930 7 0.001 0.0075968 0 -0.0235588 -2.87472e-09 0 1.47467e-10 2.79522e-07 6.22442e-09
931 7 0.001 0.00751519 0 -0.022928 -3.56724e-09 0 1.75059e-10 2.98878e-07 6.26833e-09
1080 8 0.001 0.0111979 0 -0.023638 -5.50209e-09 0 -9.54237e-10 2.62815e-07 6.73277e-09
1081 8 0.001 0.0110429 0 -0.0230211 -5.73784e-09 0 -1.03448e-09 2.68525e-07 6.74622e-09
1232 9 0.001 0.0143975 0 -0.0226417 1.41276e-10 0 3.27787e-10 2.2186e-07 5.36708e-09
1230 9 0.001 0.0148481 0 -0.0238317 6.8512e-10 0 4.92826e-10 2.32605e-07 5.38971e-09
1231 9 0.001 0.0146273 0 -0.023235 4.78938e-10 0 4.36018e-10 2.2778e-07 5.37954e-09
1381 10 0.001 0.0183572 0 -0.023543 -5.43186e-09 0 -1.28923e-09 2.01974e-07 4.20733e-09
1382 10 0.001 0.0180695 0 -0.0229754 -4.94307e-09 0 -9.92682e-10 1.88694e-07 4.18265e-09
40 1 0.001 -0.00874953 0 -0.0222532 3.42266e-10 0 -4.98128e-10 2.8317e-06 2.05462e-08
41 1 0.001 -0.0085165 0 -0.0216626 -3.01767e-10 0 -2.68275e-10 3.03423e-06 2.13904e-08
188 2 0.001 -0.00550703 0 -0.0224394 2.65373e-09 0 1.66673e-10 2.63541e-06 2.35281e-08
189 2 0.001 -0.00530002 0 -0.0218394 2.87153e-09 0 -2.1767e-11 2.83477e-06 2.44173e-08
190 2 0.001 -0.00512524 0 -0.0212292 2.9514e-09 0 -1.0661e-10 3.00976e-06 2.52114e-08
336 3 0.001 -0.00270116 0 -0.0224985 -1.15198e-09 0 -4.04946e-10 2.33829e-06 3.38488e-08
337 3 0.001 -0.00254358 0 -0.0218842 -8.44192e-10 0 -4.97743e-10 2.49636e-06 3.46933e-08
338 3 0.001 -0.00241689 0 -0.0212628 -3.2184e-10 0 -5.91816e-10 2.62657e-06 3.53969e-08
484 4 0.001 -0.000544324 0 -0.0224475 1.9562e-09 0 -1.07406e-09 1.49714e-06 3.08776e-08
485 4 0.001 -0.000434143 0 -0.0218228 1.79536e-09 0 -1.09786e-09 1.61665e-06 3.14866e-08
486 4 0.001 -0.000349163 0 -0.0211942 1.6985e-09 0 -1.0992e-09 1.72027e-06 3.20194e-08
633 5 0.001 0.00162158 0 -0.022127 3.70147e-11 0 -2.08734e-10 7.5196e-07 7.89609e-09