ITEM: TIMESTEP
9800000
ITEM: NUMBER OF ATOMS
1500
ITEM: BOX BOUNDS ff ff ff
-2.5000000000000001e-02 2.5000000000000001e-02
-5.0000000000000001e-03 5.0000000000000001e-03
-5.0000000000000003e-02 5.0000000000000003e-02
ITEM: ATOMS id type radius x y z fx fy fz c_bendingE c_stretchingE
1 1 0.001 -0.0225 0 -0.02888 -0.20434 0 -3.8e-09 1.41064e-06 1.59293e-34
151 2 0.001 -0.0175 0 -0.02888 -0.247465 0 -3.8e-09 2.0699e-06 1.59293e-34
301 3 0.001 -0.0125 0 -0.02888 -0.3068 0 -3.8e-09 3.18418e-06 1.59293e-34
451 4 0.001 -0.0075 0 -0.02888 -0.357484 0 -3.8e-09 4.32683e-06 1.59293e-34
601 5 0.001 -0.0025 0 -0.02888 -0.382544 0 -3.8e-09 4.95708e-06 1.59293e-34
751 6 0.001 0.0025 0 -0.02888 -0.364309 0 -3.8e-09 4.49418e-06 1.59293e-34
901 7 0.001 0.0075 0 -0.02888 -0.301768 0 -3.8e-09 3.08033e-06 1.59293e-34
1051 8 0.001 0.0125 0 -0.02888 -0.219851 0 -3.8e-09 1.6332e-06 1.59293e-34
1201 9 0.001 0.0175 0 -0.02888 -0.136051 0 -3.8e-09 6.2497e-07 1.59293e-34
1351 10 0.001 0.0225 0 -0.02888 -0.0521236 0 -3.8e-09 9.16956e-08 1.59293e-34
2 1 0.001 -0.0225 0 -0.0282424 0.201315 0 -0.0104262 2.85373e-06 4.66442e-09
3 1 0.001 -0.0224587 0 -0.0276079 -1.00611e-11 0 -2.03314e-12 4.31979e-06 9.4447e-09
152 2 0.001 -0.0175 0 -0.0282424 0.24341 0 -0.0161859 4.18627e-06 1.12387e-08
153 2 0.001 -0.0174501 0 -0.0276095 6.70459e-12 0 1.84718e-14 6.32724e-06 2.27083e-08
302 3 0.001 -0.0125 0 -0.0282424 0.305056 0 -0.0220027 6.35992e-06 2.02149e-08
303 3 0.001 -0.0124382 0 -0.0276115 -4.009e-12 0 6.68421e-13 9.48313e-06 4.0166e-08
304 3 0.001 -0.0123154 0 -0.0269896 1.13084e-11 0 -2.29572e-12 9.32748e-06 3.92726e-08
452 4 0.001 -0.0075 0 -0.0282424 0.359585 0 -0.0277346 8.52833e-06 3.09744e-08
453 4 0.001 -0.00742813 0 -0.0276135 6.02412e-12 0 2.26196e-12 1.25359e-05 6.02552e-08
454 4 0.001 -0.00728631 0 -0.0269964 -5.211e-12 0 -8.74544e-12 1.19629e-05 5.62674e-08
602 5 0.001 -0.0025 0 -0.0282424 0.389628 0 -0.0303469 9.64138e-06 3.55417e-08
603 5 0.001 -0.00242313 0 -0.0276144 4.35654e-12 0 3.74388e-12 1.39786e-05 6.76004e-08
604 5 0.001 -0.00227256 0 -0.0269996 -6.12334e-13 0 2.37451e-12 1.29541e-05 6.01361e-08
752 6 0.001 0.0025 0 -0.0282424 0.374689 0 -0.0283287 8.66059e-06 3.01201e-08
753 6 0.001 0.00257325 0 -0.0276136 6.55407e-12 0 -2.86829e-12 1.24455e-05 5.65968e-08
754 6 0.001 0.00271617 0 -0.0269965 3.58991e-13 0 6.75729e-13 1.13179e-05 4.91276e-08
902 7 0.001 0.0075 0 -0.0282424 0.311957 0 -0.02282 5.91495e-06 1.96157e-08
903 7 0.001 0.00756076 0 -0.0276114 -5.96471e-13 0 -1.20708e-12 8.4778e-06 3.70817e-08
904 7 0.001 0.00767932 0 -0.0269884 6.12652e-12 0 3.29475e-13 7.67174e-06 3.27457e-08
1052 8 0.001 0.0125 0 -0.0282424 0.228935 0 -0.0149053 3.12011e-06 8.41086e-09
1053 8 0.001 0.0125444 0 -0.0276087 -6.70667e-13 0 1.29808e-12 4.45516e-06 1.60095e-08
1202 9 0.001 0.0175 0 -0.0282424 0.142561 0 -0.00943895 1.18817e-06 3.47441e-09
1203 9 0.001 0.0175275 0 -0.0276069 -5.83505e-12 0 -3.27521e-12 1.68979e-06 6.73117e-09
1352 10 0.001 0.0225 0 -0.0282424 0.0550864 0 -0.00423273 1.73042e-07 7.26343e-10
1353 10 0.001 0.0225105 0 -0.0276056 2.13693e-13 0 3.1427e-12 2.44459e-07 1.43618e-09
4 1 0.001 -0.0223759 0 -0.0269775 -1.94022e-11 0 -6.22902e-12 4.38828e-06 9.63661e-09
5 1 0.001 -0.0222516 0 -0.026354 -2.34206e-11 0 -5.53454e-12 4.42722e-06 9.74659e-09
6 1 0.001 -0.0220861 0 -0.0257402 -5.33907e-11 0 1.10955e-12 4.43592e-06 9.77123e-09
154 2 0.001 -0.0173501 0 -0.0269826 8.94844e-12 0 5.20168e-12 6.40035e-06 2.30262e-08
155 2 0.001 -0.0172003 0 -0.0263658 1.68462e-11 0 4.5944e-12 6.40642e-06 2.30527e-08
156 2 0.001 -0.0170016 0 -0.0257628 3.90012e-11 0 -3.65164e-12 6.3453e-06 2.27866e-08
305 3 0.001 -0.012133 0 -0.0263824 -2.33222e-12 0 -1.55648e-12 9.04687e-06 3.76875e-08
306 3 0.001 -0.0118938 0 -0.0257951 6.10493e-12 0 1.40474e-12 8.65139e-06 3.55093e-08
455 4 0.001 -0.00707785 0 -0.0263983 1.3762e-11 0 -3.22179e-12 1.12128e-05 5.12548e-08
456 4 0.001 -0.00680721 0 -0.0258255 7.62934e-12 0 -6.80358e-12 1.0318e-05 4.55826e-08
605 5 0.001 -0.00205298 0 -0.0264056 6.61021e-12 0 7.89339e-12 1.17586e-05 5.19804e-08
606 5 0.001 -0.00177024 0 -0.0258386 8.35575e-12 0 7.46515e-12 1.04455e-05 4.37099e-08
755 6 0.001 0.00292393 0 -0.0263978 1.4648e-11 0 -7.53791e-12 1.00793e-05 4.15354e-08
756 6 0.001 0.00319075 0 -0.0258227 1.21514e-11 0 -5.95416e-12 8.77928e-06 3.42539e-08
905 7 0.001 0.00785196 0 -0.0263779 1.7862e-11 0 1.68069e-12 6.81509e-06 2.84338e-08
906 7 0.001 0.00807438 0 -0.0257835 1.55065e-11 0 -4.95006e-12 5.9347e-06 2.43203e-08
1054 8 0.001 0.0126308 0 -0.0269793 -8.68535e-12 0 4.72299e-13 4.00283e-06 1.44066e-08
1055 8 0.001 0.0127569 0 -0.0263565 -2.08854e-11 0 2.94661e-12 3.54333e-06 1.2865e-08
1056 8 0.001 0.0129198 0 -0.0257421 -1.9013e-11 0 8.75104e-12 3.08585e-06 1.14168e-08
1204 9 0.001 0.017581 0 -0.0269731 -5.83845e-12 0 4.26766e-12 1.5058e-06 6.30483e-09
1205 9 0.001 0.017659 0 -0.0263417 -3.41992e-11 0 6.87025e-12 1.32466e-06 5.89871e-09
1206 9 0.001 0.01776 0 -0.0257136 -2.21337e-11 0 2.43495e-12 1.14858e-06 5.51691e-09
1354 10 0.001 0.022531 0 -0.026969 3.71354e-12 0 -1.72383e-13 2.14721e-07 1.40408e-09
1355 10 0.001 0.0225608 0 -0.0263328 2.1966e-11 0 -2.83678e-12 1.86397e-07 1.37384e-09
1356 10 0.001 0.0225992 0 -0.0256971 1.97314e-11 0 2.58869e-12 1.59641e-07 1.34557e-09
7 1 0.001 -0.0218801 0 -0.0251387 -4.69661e-11 0 -4.21492e-12 4.41421e-06 9.70975e-09
8 1 0.001 -0.0216347 0 -0.0245522 -6.33378e-11 0 -5.10421e-12 4.36249e-06 9.56407e-09
9 1 0.001 -0.0213511 0 -0.0239831 -7.90875e-11 0 1.21157e-11 4.28168e-06 9.33869e-09
157 2 0.001 -0.0167556 0 -0.0251776 2.90104e-11 0 3.97536e-12 6.21864e-06 2.22401e-08
158 2 0.001 -0.0164642 0 -0.0246135 6.52105e-11 0 -1.22696e-11 6.02985e-06 2.14379e-08
159 2 0.001 -0.0161299 0 -0.0240737 6.46859e-11 0 -1.78929e-11 5.78392e-06 2.04151e-08
307 3 0.001 -0.011601 0 -0.0252326 -4.20737e-14 0 -1.88331e-12 8.15491e-06 3.28669e-08
308 3 0.001 -0.0112585 0 -0.0246986 1.00012e-11 0 -3.55928e-12 7.57419e-06 2.99063e-08
309 3 0.001 -0.0108709 0 -0.0241963 -1.02471e-12 0 5.20095e-13 6.92792e-06 2.67762e-08
457 4 0.001 -0.00647973 0 -0.0252828 9.97682e-12 0 -7.98867e-12 9.31515e-06 3.96219e-08
458 4 0.001 -0.00610133 0 -0.024774 2.21337e-11 0 -1.82756e-11 8.2424e-06 3.37096e-08
459 4 0.001 -0.0056782 0 -0.0243013 1.2946e-11 0 -1.07594e-11 7.13746e-06 2.81204e-08
607 5 0.001 -0.00143096 0 -0.0253031 3.97314e-12 0 9.29762e-12 9.06864e-06 3.58102e-08
608 5 0.001 -0.00104213 0 -0.0248019 1.36488e-11 0 8.47893e-12 7.67938e-06 2.86387e-08
609 5 0.001 -0.000610784 0 -0.0243363 4.02551e-12 0 9.74014e-12 6.32386e-06 2.24143e-08
757 6 0.001 0.00351033 0 -0.0252746 1.88584e-11 0 -1.27766e-11 7.4649e-06 2.76068e-08
758 6 0.001 0.0038761 0 -0.0247559 2.49299e-11 0 -1.73395e-11 6.17885e-06 2.17975e-08
759 6 0.001 0.00428156 0 -0.0242671 2.36398e-11 0 -1.42546e-11 4.95804e-06 1.69174e-08
907 7 0.001 0.0083419 0 -0.0252078 2.4113e-11 0 -1.58185e-12 5.05598e-06 2.05354e-08
908 7 0.001 0.00864967 0 -0.0246523 3.0993e-11 0 -8.36042e-12 4.20201e-06 1.71639e-08
909 7 0.001 0.00899277 0 -0.0241176 3.87763e-11 0 -1.47517e-11 3.39308e-06 1.42489e-08
1057 8 0.001 0.0131165 0 -0.0251376 -4.20954e-11 0 9.69802e-12 2.63889e-06 1.00855e-08
1058 8 0.001 0.0133439 0 -0.0245439 -4.81393e-11 0 1.38693e-11 2.2102e-06 8.88617e-09
1059 8 0.001 0.0135989 0 -0.0239613 -7.55187e-11 0 2.47436e-11 1.80663e-06 7.82643e-09
1207 9 0.001 0.017882 0 -0.0250891 -5.64295e-11 0 9.85836e-12 9.79638e-07 5.1626e-09
1208 9 0.001 0.0180235 0 -0.0244688 -6.80524e-11 0 1.49062e-11 8.19733e-07 4.83806e-09
1357 10 0.001 0.0226456 0 -0.0250619 3.41949e-11 0 2.13898e-12 1.34593e-07 1.31938e-09
1358 10 0.001 0.0226994 0 -0.0244272 3.54202e-11 0 -3.24215e-12 1.11386e-07 1.29534e-09
10 1 0.001 -0.021031 0 -0.0234337 -6.65693e-11 0 7.39501e-13 4.17323e-06 9.04042e-09
11 1 0.001 -0.020676 0 -0.0229062 -8.58236e-11 0 1.26426e-11 4.03902e-06 8.67803e-09
160 2 0.001 -0.0157555 0 -0.0235608 7.77186e-11 0 -2.18268e-11 5.4872e-06 1.92145e-08
161 2 0.001 -0.0153442 0 -0.0230769 1.00782e-10 0 -3.82496e-11 5.14712e-06 1.78832e-08
162 2 0.001 -0.0148992 0 -0.0226236 1.04537e-10 0 -4.53238e-11 4.77187e-06 1.64699e-08
310 3 0.001 -0.0104427 0 -0.0237278 8.2207e-12 0 -1.52659e-12 6.23576e-06 2.36163e-08
311 3 0.001 -0.00997876 0 -0.0232944 5.59029e-13 0 6.51681e-13 5.51742e-06 2.05471e-08
312 3 0.001 -0.00948386 0 -0.0228964 1.31774e-11 0 -8.45577e-12 4.79188e-06 1.76642e-08
313 3 0.001 -0.00896251 0 -0.0225334 2.15644e-12 0 9.07841e-13 4.07678e-06 1.50363e-08
460 4 0.001 -0.00521654 0 -0.0238658 2.40051e-11 0 -2.26697e-11 6.03566e-06 2.30523e-08
461 4 0.001 -0.00472234 0 -0.0234671 2.10327e-11 0 -2.09714e-11 4.96873e-06 1.86246e-08
462 4 0.001 -0.00420116 0 -0.0231039 1.98503e-11 0 -2.89839e-11 3.96401e-06 1.48863e-08
463 4 0.001 -0.00365805 0 -0.022774 2.54656e-11 0 -3.07132e-11 3.04421e-06 1.18302e-08
464 4 0.001 -0.0030975 0 -0.0224741 2.15981e-11 0 -2.73724e-11 2.22754e-06 9.41e-09
610 5 0.001 -0.000143681 0 -0.0239061 1.76287e-11 0 4.0769e-12 5.04174e-06 1.72281e-08
611 5 0.001 0.000352872 0 -0.0235097 1.08708e-11 0 9.93005e-12 3.86561e-06 1.30694e-08
612 5 0.001 0.000873163 0 -0.0231445 1.90476e-11 0 -7.494e-12 2.82113e-06 9.85565e-09
613 5 0.001 0.00141213 0 -0.022807 1.82107e-11 0 2.87545e-12 1.92802e-06 7.45763e-09
614 5 0.001 0.00196535 0 -0.022493 2.34717e-11 0 -9.34578e-12 1.20328e-06 5.68983e-09
760 6 0.001 0.00472045 0 -0.0238077 2.29657e-11 0 -1.92531e-11 3.83307e-06 1.29667e-08
761 6 0.001 0.00518694 0 -0.0233759 1.98436e-11 0 -1.94934e-11 2.82825e-06 9.88044e-09
762 6 0.001 0.0056757 0 -0.0229691 2.19854e-11 0 -2.02587e-11 1.96219e-06 7.55494e-09
763 6 0.001 0.0061819 0 -0.0225839 1.36637e-11 0 -1.50632e-11 1.24932e-06 5.85162e-09
910 7 0.001 0.00936639 0 -0.0236035 4.33476e-11 0 -1.42488e-11 2.64644e-06 1.17987e-08
911 7 0.001 0.0097659 0 -0.023109 4.17356e-11 0 -1.85534e-11 1.97631e-06 9.79581e-09
912 7 0.001 0.0101869 0 -0.0226325 4.78997e-11 0 -1.67789e-11 1.39406e-06 8.20625e-09
1060 8 0.001 0.0138784 0 -0.02339 -6.75938e-11 0 1.947e-11 1.43415e-06 6.90796e-09
1061 8 0.001 0.0141792 0 -0.0228295 -9.56292e-11 0 3.97552e-11 1.09784e-06 6.12785e-09
1209 9 0.001 0.0181827 0 -0.0238527 -7.87926e-11 0 1.26744e-11 6.70585e-07 4.54486e-09
1210 9 0.001 0.0183577 0 -0.0232408 -7.73988e-11 0 2.17509e-11 5.33731e-07 4.28387e-09
1211 9 0.001 0.0185467 0 -0.0226331 -9.47948e-11 0 2.57129e-11 4.10523e-07 4.05551e-09
1359 10 0.001 0.0227598 0 -0.0237931 5.37441e-11 0 5.91182e-12 9.01384e-08 1.27353e-09
1360 10 0.001 0.0228262 0 -0.0231597 5.93714e-11 0 -3.71693e-12 7.09593e-08 1.25399e-09
1361 10 0.001 0.0228979 0 -0.0225268 6.58438e-11 0 -2.57276e-12 5.39451e-08 1.23679e-09
12 1 0.001 -0.0202882 0 -0.0224022 -8.74444e-11 0 2.11196e-11 3.88135e-06 8.26179e-09
13 1 0.001 -0.0198699 0 -0.0219232 -7.7759e-11 0 1.05692e-11 3.70286e-06 7.80293e-09
14 1 0.001 -0.0194231 0 -0.0214706 -8.41679e-11 0 1.82644e-11 3.50642e-06 7.31313e-09
15 1 0.001 -0.0189503 0 -0.0210451 -8.72121e-11 0 2.95887e-11 3.29511e-06 6.804e-09
163 2 0.001 -0.0144239 0 -0.0222021 1.22886e-10 0 -5.80197e-11 4.37011e-06 1.50213e-08
164 2 0.001 -0.0139217 0 -0.0218128 1.30336e-10 0 -7.07265e-11 3.95063e-06 1.35801e-08
165 2 0.001 -0.013396 0 -0.0214557 1.4359e-10 0 -8.46362e-11 3.52213e-06 1.21831e-08
166 2 0.001 -0.01285 0 -0.0211303 1.40272e-10 0 -8.98971e-11 3.09296e-06 1.086e-08
314 3 0.001 -0.00841897 0 -0.0222042 1.12812e-11 0 -1.38717e-11 3.38802e-06 1.27051e-08
315 3 0.001 -0.00785711 0 -0.0219071 8.13382e-12 0 -3.74731e-12 2.73947e-06 1.06894e-08
316 3 0.001 -0.00728039 0 -0.0216394 9.01424e-12 0 -1.19484e-11 2.14293e-06 8.98886e-09
317 3 0.001 -0.00669184 0 -0.0213986 6.55852e-12 0 -1.0825e-11 1.60819e-06 7.58931e-09
318 3 0.001 -0.00609406 0 -0.0211812 5.69169e-12 0 -2.08793e-11 1.14309e-06 6.46798e-09
319 3 0.001 -0.00548926 0 -0.0209839 1.18877e-11 0 -1.36661e-11 7.54296e-07 5.58622e-09
465 4 0.001 -0.00252338 0 -0.0222006 2.41489e-11 0 -4.10294e-11 1.52854e-06 7.54841e-09
466 4 0.001 -0.00193901 0 -0.0219494 2.4157e-11 0 -3.84904e-11 9.59763e-07 6.12916e-09
467 4 0.001 -0.0013472 0 -0.0217158 2.26204e-11 0 -3.82649e-11 5.30274e-07 5.05852e-09
468 4 0.001 -0.00075031 0 -0.0214952 2.39262e-11 0 -3.50481e-11 2.41058e-07 4.30035e-09
469 4 0.001 -0.000150309 0 -0.021283 2.2552e-11 0 -4.8799e-11 8.04899e-08 3.81477e-09
470 4 0.001 0.000451146 0 -0.0210748 2.01417e-11 0 -3.51882e-11 2.47571e-08 3.53885e-09
615 5 0.001 0.00252901 0 -0.0221978 2.34277e-11 0 -7.39069e-12 6.58173e-07 4.41065e-09
616 5 0.001 0.00309982 0 -0.0219163 2.48422e-11 0 -6.40194e-12 2.93876e-07 3.56646e-09
617 5 0.001 0.00367498 0 -0.0216436 2.41541e-11 0 -4.06317e-12 9.5328e-08 3.08979e-09
618 5 0.001 0.00425207 0 -0.0213748 2.66026e-11 0 -1.47523e-11 3.33858e-08 2.89599e-09
619 5 0.001 0.00482901 0 -0.0211057 2.16339e-11 0 -2.05758e-12 7.00008e-08 2.9092e-09
764 6 0.001 0.00670123 0 -0.0222163 8.54555e-12 0 -1.10603e-11 7.01198e-07 4.63098e-09
765 6 0.001 0.00722981 0 -0.0218618 1.1456e-11 0 -1.66582e-11 3.23061e-07 3.79228e-09
766 6 0.001 0.00776417 0 -0.021516 2.98325e-12 0 -1.05479e-11 1.08791e-07 3.26776e-09
767 6 0.001 0.00830124 0 -0.0211742 -1.31945e-12 0 -2.48174e-12 3.80344e-08 3.00414e-09
913 7 0.001 0.0106253 0 -0.0221717 3.58088e-11 0 -9.81371e-12 9.0849e-07 6.98767e-09
914 7 0.001 0.0110771 0 -0.0217239 4.33013e-11 0 -1.02808e-11 5.26257e-07 6.09487e-09
915 7 0.001 0.0115388 0 -0.0212862 2.18309e-11 0 7.22218e-12 2.52389e-07 5.46826e-09
1062 8 0.001 0.0144983 0 -0.0222791 -9.05329e-11 0 2.98769e-11 8.01947e-07 5.48003e-09
1063 8 0.001 0.0148327 0 -0.0217378 -9.57631e-11 0 4.08631e-11 5.49909e-07 4.95669e-09
1064 8 0.001 0.0151796 0 -0.0212044 -1.11636e-10 0 4.37909e-11 3.44465e-07 4.54946e-09
1212 9 0.001 0.0187478 0 -0.0220293 -1.00299e-10 0 2.95874e-11 3.0213e-07 3.85977e-09
1213 9 0.001 0.0189594 0 -0.021429 -6.87415e-11 0 2.36552e-11 2.09545e-07 3.69641e-09
1362 10 0.001 0.0229742 0 -0.0218944 8.75373e-11 0 -2.84594e-12 3.91806e-08 1.22196e-09
1363 10 0.001 0.0230545 0 -0.0212626 8.94699e-11 0 -1.00946e-11 2.67387e-08 1.20953e-09
16 1 0.001 -0.0184539 0 -0.0206473 -7.17937e-11 0 1.55395e-11 3.07211e-06 6.28665e-09
17 1 0.001 -0.0179362 0 -0.0202776 -7.70577e-11 0 1.97709e-11 2.84063e-06 5.77128e-09
18 1 0.001 -0.0173995 0 -0.0199359 -7.9044e-11 0 3.45997e-11 2.60384e-06 5.26692e-09
19 1 0.001 -0.0168461 0 -0.019622 -6.31056e-11 0 1.32778e-11 2.36483e-06 4.78124e-09
167 2 0.001 -0.0122867 0 -0.0208356 1.52821e-10 0 -9.07345e-11 2.67092e-06 9.633e-09
168 2 0.001 -0.0117088 0 -0.0205703 1.5826e-10 0 -1.08509e-10 2.26318e-06 8.51748e-09
169 2 0.001 -0.0111189 0 -0.0203326 1.49153e-10 0 -9.84336e-11 1.87616e-06 7.52211e-09
170 2 0.001 -0.0105193 0 -0.0201206 1.58605e-10 0 -1.01136e-10 1.51551e-06 6.65015e-09
171 2 0.001 -0.00991174 0 -0.0199319 1.58953e-10 0 -1.08495e-10 1.18607e-06 5.90054e-09
172 2 0.001 -0.00929805 0 -0.0197641 1.59652e-10 0 -9.7105e-11 8.91949e-07 5.2691e-09
173 2 0.001 -0.00867959 0 -0.0196144 1.57124e-10 0 -1.08192e-10 6.36546e-07 4.74969e-09
174 2 0.001 -0.00805754 0 -0.0194803 1.56555e-10 0 -9.93801e-11 4.22624e-07 4.33476e-09
320 3 0.001 -0.00487928 0 -0.0208029 5.90594e-12 0 -2.5772e-11 4.47746e-07 4.89734e-09
321 3 0.001 -0.00426565 0 -0.0206344 9.38782e-12 0 -2.44379e-11 2.26727e-07 4.37759e-09
322 3 0.001 -0.00364966 0 -0.0204745 1.02047e-11 0 -3.30413e-11 8.91554e-08 3.99844e-09
323 3 0.001 -0.00303237 0 -0.0203195 6.33755e-12 0 -2.53856e-11 2.53779e-08 3.72429e-09
324 3 0.001 -0.00241468 0 -0.0201659 5.91425e-12 0 -4.20799e-11 1.99916e-08 3.50502e-09
325 3 0.001 -0.00179735 0 -0.0200108 1.53481e-12 0 -2.64767e-11 5.57114e-08 3.30199e-09
326 3 0.001 -0.00118108 0 -0.0198514 4.36558e-12 0 -5.22959e-11 1.17487e-07 3.13977e-09
327 3 0.001 -0.000566517 0 -0.0196854 -1.90287e-12 0 -3.48283e-11 1.94703e-07 3.05048e-09
328 3 0.001 4.57031e-05 0 -0.019511 -6.88248e-12 0 -3.77649e-11 2.81143e-07 3.0415e-09
471 4 0.001 0.00105266 0 -0.0208666 1.97028e-11 0 -4.26155e-11 4.3408e-08 3.37775e-09
472 4 0.001 0.00165305 0 -0.0206552 1.89401e-11 0 -3.58386e-11 1.06916e-07 3.24106e-09
473 4 0.001 0.00225132 0 -0.0204377 1.75107e-11 0 -4.25842e-11 1.92612e-07 3.09845e-09
474 4 0.001 0.00284656 0 -0.0202121 1.05754e-11 0 -3.69572e-11 2.86938e-07 2.96105e-09
475 4 0.001 0.00343792 0 -0.0199764 1.48487e-11 0 -3.88216e-11 3.83835e-07 2.86047e-09
476 4 0.001 0.00402457 0 -0.0197291 5.06894e-12 0 -3.24645e-11 4.82163e-07 2.83316e-09
620 5 0.001 0.00540401 0 -0.0208326 2.51229e-11 0 8.32399e-12 1.66036e-07 3.03337e-09
621 5 0.001 0.00597551 0 -0.0205522 2.006e-11 0 2.06478e-13 2.8892e-07 3.17663e-09
622 5 0.001 0.00654215 0 -0.0202622 1.72069e-11 0 1.72205e-11 4.17118e-07 3.30391e-09
623 5 0.001 0.00710272 0 -0.0199606 1.78219e-11 0 1.6733e-11 5.40569e-07 3.42046e-09
624 5 0.001 0.00765612 0 -0.0196462 6.47315e-12 0 2.94961e-11 6.57444e-07 3.54757e-09
768 6 0.001 0.00883825 0 -0.0208324 -6.4218e-12 0 -4.71034e-12 7.98396e-08 2.95833e-09
769 6 0.001 0.00937273 0 -0.0204866 -5.76147e-12 0 -3.83672e-12 1.9865e-07 3.08976e-09
770 6 0.001 0.00990243 0 -0.0201336 -1.97573e-11 0 1.42919e-11 3.59578e-07 3.34908e-09
771 6 0.001 0.0104253 0 -0.0197707 -1.41444e-11 0 8.04291e-12 5.3412e-07 3.65983e-09
916 7 0.001 0.0120069 0 -0.0208552 2.34452e-11 0 1.45978e-11 8.90459e-08 5.0579e-09
917 7 0.001 0.0124781 0 -0.0204276 4.58397e-12 0 3.14072e-11 3.27161e-08 4.85319e-09
918 7 0.001 0.0129493 0 -0.02 -3.43143e-12 0 4.60171e-11 7.19579e-08 4.84862e-09
919 7 0.001 0.0134177 0 -0.0195693 -1.5724e-11 0 6.47695e-11 1.88258e-07 5.02071e-09
1065 8 0.001 0.0155361 0 -0.0206772 -1.02269e-10 0 3.92772e-11 1.87705e-07 4.25042e-09
1066 8 0.001 0.0158994 0 -0.0201547 -1.14986e-10 0 4.5708e-11 8.11416e-08 4.05292e-09
1067 8 0.001 0.016267 0 -0.0196351 -1.1427e-10 0 4.68851e-11 2.5759e-08 3.95211e-09
1214 9 0.001 0.0191794 0 -0.0208318 -9.85975e-11 0 2.96653e-11 1.33588e-07 3.56502e-09
1215 9 0.001 0.0194063 0 -0.0202371 -7.00049e-11 0 2.14981e-11 7.49114e-08 3.46515e-09
1216 9 0.001 0.019638 0 -0.0196442 -7.12558e-11 0 2.05582e-11 3.40092e-08 3.39637e-09
1364 10 0.001 0.0231379 0 -0.0206311 1.10434e-10 0 -6.3465e-12 1.66802e-08 1.19953e-09
1365 10 0.001 0.0232238 0 -0.02 1.18833e-10 0 -1.30337e-11 9.05401e-09 1.19197e-09
20 1 0.001 -0.016278 0 -0.0193352 -7.30408e-11 0 2.87984e-11 2.12655e-06 4.32044e-09
21 1 0.001 -0.0156972 0 -0.0190749 -6.66001e-11 0 3.65953e-11 1.89177e-06 3.88925e-09
22 1 0.001 -0.0151057 0 -0.01884 -6.02269e-11 0 2.80791e-11 1.66306e-06 3.49099e-09
23 1 0.001 -0.014505 0 -0.0186293 -6.44276e-11 0 4.53099e-11 1.44274e-06 3.1277e-09
24 1 0.001 -0.0138968 0 -0.0184415 -5.50192e-11 0 3.60032e-11 1.23295e-06 2.8003e-09
25 1 0.001 -0.0132823 0 -0.018275 -5.7761e-11 0 4.00106e-11 1.03555e-06 2.50875e-09
26 1 0.001 -0.0126627 0 -0.0181284 -4.77881e-11 0 2.7587e-11 8.52182e-07 2.25228e-09
27 1 0.001 -0.0120391 0 -0.0179997 -4.26088e-11 0 2.45352e-11 6.8428e-07 2.02954e-09
175 2 0.001 -0.00743286 0 -0.0193587 1.62399e-10 0 -1.12014e-10 2.52625e-07 4.01142e-09
176 2 0.001 -0.00680634 0 -0.0192466 1.57504e-10 0 -9.93028e-11 1.28347e-07 3.76067e-09
177 2 0.001 -0.00617864 0 -0.0191413 1.62664e-10 0 -1.03454e-10 5.00079e-08 3.56428e-09
178 2 0.001 -0.0055503 0 -0.0190396 1.61063e-10 0 -1.10349e-10 1.48369e-08 3.39876e-09
179 2 0.001 -0.00492179 0 -0.0189389 1.55001e-10 0 -8.72597e-11 1.73042e-08 3.24962e-09
180 2 0.001 -0.00429353 0 -0.0188365 1.6095e-10 0 -1.0583e-10 5.05905e-08 3.09976e-09
181 2 0.001 -0.00366592 0 -0.0187299 1.60272e-10 0 -7.91924e-11 1.08494e-07 2.92707e-09
182 2 0.001 -0.00303938 0 -0.0186171 1.50272e-10 0 -7.54763e-11 1.8652e-07 2.74587e-09
183 2 0.001 -0.00241439 0 -0.0184959 1.62386e-10 0 -7.19252e-11 2.82336e-07 2.59089e-09
184 2 0.001 -0.00179147 0 -0.0183643 1.52207e-10 0 -5.38921e-11 3.95965e-07 2.50259e-09
185 2 0.001 -0.00117126 0 -0.0182204 1.48846e-10 0 -3.74662e-11 5.30076e-07 2.52437e-09
329 3 0.001 0.000654925 0 -0.0193264 -5.0296e-12 0 -4.08432e-11 3.74064e-07 3.1096e-09
186 2 0.001 -0.000554504 0 -0.0180625 1.50523e-10 0 -4.35308e-11 6.90691e-07 2.69686e-09
330 3 0.001 0.00126046 0 -0.0191301 -1.20853e-11 0 -2.9832e-11 4.73367e-07 3.25588e-09
331 3 0.001 0.00186158 0 -0.0189208 -1.07433e-11 0 -2.89307e-11 5.80947e-07 3.47753e-09
332 3 0.001 0.00245747 0 -0.0186971 -1.11149e-11 0 -2.41355e-11 7.00406e-07 3.76821e-09
333 3 0.001 0.00304722 0 -0.0184578 -1.89866e-11 0 -1.79925e-11 8.37299e-07 4.14034e-09
334 3 0.001 0.00362979 0 -0.0182017 -1.83227e-11 0 -9.66031e-12 9.99851e-07 4.62782e-09
477 4 0.001 0.00460567 0 -0.0194691 7.3907e-12 0 -3.23147e-11 5.83684e-07 2.89862e-09
478 4 0.001 0.00518032 0 -0.0191952 -1.77628e-12 0 -1.83699e-11 6.9172e-07 3.06433e-09
479 4 0.001 0.00574757 0 -0.0189064 -1.47595e-12 0 -2.57261e-11 8.10494e-07 3.33765e-09
480 4 0.001 0.00630636 0 -0.0186016 -1.56919e-11 0 -6.26378e-12 9.44944e-07 3.72572e-09
481 4 0.001 0.00685552 0 -0.0182799 -9.21407e-12 0 -6.31268e-12 1.10052e-06 4.2235e-09
625 5 0.001 0.00820126 0 -0.0193176 1.23621e-11 0 2.37498e-11 7.70712e-07 3.70639e-09
626 5 0.001 0.00873707 0 -0.0189741 2.00468e-12 0 4.08672e-11 8.8523e-07 3.91083e-09
627 5 0.001 0.00926243 0 -0.0186149 -2.22766e-12 0 3.82779e-11 1.00633e-06 4.17312e-09
628 5 0.001 0.00977614 0 -0.0182393 -1.58187e-11 0 5.83364e-11 1.13931e-06 4.50869e-09
772 6 0.001 0.0109397 0 -0.0193958 -3.38676e-11 0 2.75375e-11 7.03645e-07 3.95251e-09
773 6 0.001 0.0114439 0 -0.0190074 -3.02557e-11 0 2.38765e-11 8.60375e-07 4.22541e-09
774 6 0.001 0.0119364 0 -0.0186044 -5.14384e-11 0 4.71384e-11 1.00411e-06 4.50504e-09
775 6 0.001 0.0124159 0 -0.0181861 -5.07242e-11 0 4.82202e-11 1.13871e-06 4.81182e-09
920 7 0.001 0.0138803 0 -0.0191325 -3.20435e-11 0 7.36322e-11 3.595e-07 5.33557e-09
921 7 0.001 0.0143347 0 -0.0186871 -3.64805e-11 0 9.24822e-11 5.63422e-07 5.75872e-09
922 7 0.001 0.0147785 0 -0.0182313 -5.76889e-11 0 1.12065e-10 7.79876e-07 6.26172e-09
1068 8 0.001 0.016636 0 -0.0191166 -1.20336e-10 0 5.21585e-11 2.19982e-08 3.94228e-09
1069 8 0.001 0.0170039 0 -0.0185973 -1.18705e-10 0 4.90265e-11 6.92934e-08 4.01185e-09
1070 8 0.001 0.017368 0 -0.0180753 -1.23281e-10 0 5.42286e-11 1.65006e-07 4.16141e-09
1217 9 0.001 0.0198729 0 -0.0190526 -6.96262e-11 0 2.2576e-11 1.1219e-08 3.35834e-09
1218 9 0.001 0.0201091 0 -0.0184616 -6.12933e-11 0 1.90824e-11 6.72676e-09 3.35087e-09
1366 10 0.001 0.0233116 0 -0.0193691 1.35554e-10 0 -1.40431e-11 3.89705e-09 1.18688e-09
1367 10 0.001 0.0234004 0 -0.0187384 1.43749e-10 0 -1.59225e-11 1.23415e-09 1.18425e-09
1368 10 0.001 0.0234897 0 -0.0181077 1.50766e-10 0 -1.28363e-11 1.0781e-09 1.18409e-09
28 1 0.001 -0.0114123 0 -0.0178874 -4.10169e-11 0 1.94902e-11 5.33058e-07 1.83884e-09
29 1 0.001 -0.0107831 0 -0.0177894 -2.98371e-11 0 -5.22996e-12 3.99542e-07 1.67828e-09
30 1 0.001 -0.010152 0 -0.0177039 -2.76507e-11 0 -1.67495e-11 2.8458e-07 1.54588e-09
31 1 0.001 -0.00951953 0 -0.0176288 -2.19905e-11 0 -3.57406e-11 1.8886e-07 1.43979e-09
32 1 0.001 -0.0088861 0 -0.0175624 -1.49476e-11 0 -4.96711e-11 1.12926e-07 1.3583e-09
33 1 0.001 -0.00825201 0 -0.0175024 -2.28666e-11 0 -6.30238e-11 5.71803e-08 1.29996e-09
34 1 0.001 -0.0076175 0 -0.0174469 -8.90311e-12 0 -7.27086e-11 2.19057e-08 1.2603e-09
35 1 0.001 -0.00698277 0 -0.0173939 -1.35698e-11 0 -8.34523e-11 7.78389e-09 1.22647e-09
36 1 0.001 -0.006348 0 -0.0173413 -8.47105e-12 0 -8.7421e-11 1.68994e-08 1.1922e-09
37 1 0.001 -0.00571337 0 -0.0172869 -5.40691e-12 0 -8.90618e-11 5.42146e-08 1.169e-09
38 1 0.001 -0.0050791 0 -0.0172283 3.40332e-12 0 -1.00765e-10 1.28971e-07 1.17436e-09
39 1 0.001 -0.0044455 0 -0.017163 2.49322e-12 0 -1.00681e-10 2.56026e-07 1.23086e-09
40 1 0.001 -0.00381298 0 -0.0170882 3.27696e-12 0 -9.35421e-11 4.57125e-07 1.37303e-09
41 1 0.001 -0.00318218 0 -0.0170003 8.98767e-12 0 -1.00296e-10 7.62175e-07 1.65023e-09
42 1 0.001 -0.00255404 0 -0.0168957 1.05124e-11 0 -7.11148e-11 1.20998e-06 2.15234e-09
43 1 0.001 -0.00192991 0 -0.0167699 5.28239e-12 0 -8.49596e-11 1.84755e-06 3.05143e-09
44 1 0.001 -0.0013118 0 -0.016618 4.83011e-12 0 -4.41129e-11 2.72664e-06 4.64271e-09
187 2 0.001 5.78918e-05 0 -0.0178885 1.40565e-10 0 -1.38247e-11 8.88404e-07 3.06129e-09
188 2 0.001 0.000664825 0 -0.0176967 1.408e-10 0 -1.19259e-11 1.13908e-06 3.63047e-09
189 2 0.001 0.00126493 0 -0.0174847 1.40175e-10 0 -9.79741e-12 1.46534e-06 4.43628e-09
190 2 0.001 0.00185649 0 -0.0172503 1.28794e-10 0 1.0083e-11 1.8972e-06 5.57412e-09
191 2 0.001 0.00243729 0 -0.0169908 1.24101e-10 0 2.82005e-11 2.4693e-06 7.16592e-09
192 2 0.001 0.00300451 0 -0.0167032 1.18362e-10 0 3.79154e-11 3.213e-06 9.44575e-09
335 3 0.001 0.00420398 0 -0.0179275 -2.20746e-11 0 -6.92185e-12 1.19984e-06 5.27759e-09
336 3 0.001 0.00476834 0 -0.0176338 -2.77171e-11 0 -2.31519e-12 1.45283e-06 6.1332e-09
337 3 0.001 0.00532112 0 -0.017319 -2.78318e-11 0 1.15083e-13 1.77711e-06 7.20049e-09
338 3 0.001 0.00586019 0 -0.0169816 -2.81618e-11 0 4.05436e-12 2.19282e-06 8.52582e-09
339 3 0.001 0.00638292 0 -0.0166196 -3.11286e-11 0 5.90008e-12 2.71787e-06 1.02145e-08
482 4 0.001 0.00739372 0 -0.0179403 -2.26867e-11 0 -2.82275e-13 1.28362e-06 4.83886e-09
483 4 0.001 0.00791941 0 -0.0175819 -3.80446e-11 0 2.08702e-11 1.50211e-06 5.60308e-09
484 4 0.001 0.00843083 0 -0.0172035 -3.62272e-11 0 1.55377e-11 1.76586e-06 6.55169e-09
485 4 0.001 0.00892594 0 -0.0168042 -5.735e-11 0 4.15457e-11 2.08547e-06 7.6982e-09
629 5 0.001 0.0102769 0 -0.0178466 -1.25076e-11 0 5.86343e-11 1.28936e-06 4.93035e-09
630 5 0.001 0.0107633 0 -0.0174364 -3.69375e-11 0 7.77248e-11 1.46135e-06 5.42986e-09
631 5 0.001 0.0112336 0 -0.017008 -3.25583e-11 0 7.68556e-11 1.65995e-06 6.00192e-09
776 6 0.001 0.012881 0 -0.0177518 -6.77889e-11 0 5.74944e-11 1.26948e-06 5.15517e-09
632 5 0.001 0.0116862 0 -0.016561 -4.67271e-11 0 8.98641e-11 1.89013e-06 6.68312e-09
777 6 0.001 0.0133303 0 -0.0173013 -7.41156e-11 0 6.73063e-11 1.40192e-06 5.53721e-09
778 6 0.001 0.0137624 0 -0.0168344 -9.31379e-11 0 8.22145e-11 1.54121e-06 5.9625e-09
923 7 0.001 0.0152092 0 -0.0177632 -5.96451e-11 0 1.18135e-10 9.9219e-07 6.79727e-09
924 7 0.001 0.015625 0 -0.0172819 -7.72646e-11 0 1.29296e-10 1.18926e-06 7.2932e-09
925 7 0.001 0.0160239 0 -0.0167865 -9.13452e-11 0 1.47999e-10 1.36622e-06 7.71967e-09
1071 8 0.001 0.0177257 0 -0.0175489 -1.41033e-10 0 5.88943e-11 3.03498e-07 4.39637e-09
1072 8 0.001 0.0180744 0 -0.0170166 -1.23592e-10 0 5.61606e-11 4.76095e-07 4.70469e-09
1073 8 0.001 0.0184114 0 -0.0164769 -1.56363e-10 0 6.82127e-11 6.72164e-07 5.06477e-09
1219 9 0.001 0.0203448 0 -0.0178703 -5.69013e-11 0 1.9743e-11 2.0569e-08 3.37391e-09
1220 9 0.001 0.0205783 0 -0.0172781 -6.35518e-11 0 1.70633e-11 5.26331e-08 3.42758e-09
1221 9 0.001 0.0208077 0 -0.0166844 -4.38574e-11 0 1.67806e-11 1.02656e-07 3.51217e-09
1369 10 0.001 0.0235786 0 -0.017477 1.51901e-10 0 -1.52595e-11 3.42964e-09 1.18641e-09
1370 10 0.001 0.0236665 0 -0.0168461 1.59948e-10 0 -1.553e-11 8.27749e-09 1.19119e-09
45 1 0.001 -0.000702521 0 -0.0164349 3.45348e-12 0 -5.07042e-11 3.89635e-06 7.38366e-09
46 1 0.001 -0.00010598 0 -0.0162148 -1.05153e-11 0 -1.5279e-11 5.39105e-06 1.18822e-08
47 1 0.001 0.000472623 0 -0.0159523 -1.67235e-11 0 -7.91689e-12 7.21514e-06 1.87804e-08
48 1 0.001 0.00102661 0 -0.0156423 -3.5543e-11 0 1.89463e-11 9.33073e-06 2.8607e-08
49 1 0.001 0.00154781 0 -0.0152809 -4.86511e-11 0 3.52649e-11 1.16551e-05 4.13883e-08
193 2 0.001 0.00355451 0 -0.0163845 1.01712e-10 0 6.16625e-11 4.14592e-06 1.27079e-08
194 2 0.001 0.00408283 0 -0.0160315 8.67609e-11 0 7.59462e-11 5.26438e-06 1.71121e-08
195 2 0.001 0.0045841 0 -0.0156416 6.86526e-11 0 1.04647e-10 6.54007e-06 2.26532e-08
196 2 0.001 0.00505211 0 -0.015213 5.53276e-11 0 1.12251e-10 7.9236e-06 2.92521e-08
340 3 0.001 0.00688613 0 -0.0162312 -3.39079e-11 0 1.0912e-11 3.36338e-06 1.24223e-08
341 3 0.001 0.00736603 0 -0.0158147 -3.19072e-11 0 1.22671e-11 4.12767e-06 1.52845e-08
342 3 0.001 0.00781819 0 -0.0153685 -4.90989e-11 0 2.6144e-11 4.99401e-06 1.8781e-08
486 4 0.001 0.00940234 0 -0.016383 -6.86431e-11 0 4.37304e-11 2.47042e-06 9.034e-09
487 4 0.001 0.00985727 0 -0.0159389 -7.45668e-11 0 5.9095e-11 2.92712e-06 1.0584e-08
488 4 0.001 0.0102876 0 -0.015471 -1.00694e-10 0 7.40264e-11 3.45604e-06 1.24089e-08
633 5 0.001 0.0121189 0 -0.0160948 -5.90119e-11 0 9.67715e-11 2.15743e-06 7.51671e-09
634 5 0.001 0.0125296 0 -0.0156093 -6.29613e-11 0 9.99123e-11 2.46653e-06 8.50418e-09
635 5 0.001 0.0129158 0 -0.0151041 -6.01736e-11 0 9.81818e-11 2.81946e-06 9.62269e-09
779 6 0.001 0.0141759 0 -0.016351 -8.79091e-11 0 7.79321e-11 1.69189e-06 6.43075e-09
780 6 0.001 0.0145693 0 -0.0158511 -1.11375e-10 0 9.38513e-11 1.85761e-06 6.93216e-09
781 6 0.001 0.0149407 0 -0.0153348 -1.07032e-10 0 8.98811e-11 2.04156e-06 7.47508e-09
926 7 0.001 0.0164042 0 -0.0162768 -9.42324e-11 0 1.50728e-10 1.52381e-06 8.10624e-09
927 7 0.001 0.0167642 0 -0.0157526 -1.18343e-10 0 1.71821e-10 1.66583e-06 8.49001e-09
928 7 0.001 0.0171026 0 -0.0152142 -1.07141e-10 0 1.68111e-10 1.79754e-06 8.88964e-09
1074 8 0.001 0.0187344 0 -0.0159287 -1.44188e-10 0 6.24223e-11 8.80413e-07 5.45702e-09
1075 8 0.001 0.019041 0 -0.0153712 -1.56153e-10 0 6.70839e-11 1.08982e-06 5.87339e-09
1222 9 0.001 0.0210313 0 -0.0160885 -6.68005e-11 0 2.10546e-11 1.70221e-07 3.62806e-09
1223 9 0.001 0.0212473 0 -0.0154898 -4.57397e-11 0 1.35268e-11 2.54754e-07 3.7757e-09
1224 9 0.001 0.0214538 0 -0.0148877 -5.17507e-11 0 1.61395e-11 3.55379e-07 3.955e-09
1371 10 0.001 0.0237527 0 -0.016215 1.2968e-10 0 -1.14266e-11 1.55983e-08 1.19844e-09
1372 10 0.001 0.0238365 0 -0.0155836 1.37167e-10 0 -1.32116e-11 2.53567e-08 1.20813e-09
1373 10 0.001 0.0239172 0 -0.0149518 1.23319e-10 0 -1.04482e-11 3.75052e-08 1.22026e-09
50 1 0.001 0.00202668 0 -0.0148661 -7.07155e-11 0 6.16785e-11 1.40795e-05 5.68704e-08
51 1 0.001 0.0024527 0 -0.014398 -9.01382e-11 0 7.31725e-11 1.6483e-05 7.45982e-08
52 1 0.001 0.00281491 0 -0.0138797 -1.23924e-10 0 9.71298e-11 1.87419e-05 9.34647e-08
197 2 0.001 0.00548001 0 -0.0147448 1.92408e-11 0 1.40767e-10 9.35562e-06 3.6787e-08
198 2 0.001 0.00586053 0 -0.0142378 -1.55092e-12 0 1.58511e-10 1.07764e-05 4.50569e-08