ITEM: TIMESTEP
7000000
ITEM: NUMBER OF ATOMS
1500
ITEM: BOX BOUNDS ff ff ff
-2.5000000000000001e-02 2.5000000000000001e-02
-5.0000000000000001e-03 5.0000000000000001e-03
-5.0000000000000003e-02 5.0000000000000003e-02
ITEM: ATOMS id type radius x y z fx fy fz c_bendingE c_stretchingE
1 1 0.001 -0.0224999 0 -0.0475 2.7719e-25 0 -7.11987e-13 0 2.10671e-29
151 2 0.001 -0.0174999 0 -0.0475 2.7719e-25 0 -7.11987e-13 0 2.10671e-29
301 3 0.001 -0.0125001 0 -0.0475 -2.7719e-25 0 -7.11987e-13 0 2.10671e-29
451 4 0.001 -0.00750007 0 -0.0475 -2.7719e-25 0 -7.11987e-13 0 2.10671e-29
601 5 0.001 -0.00250007 0 -0.0475 -2.7719e-25 0 -7.11987e-13 0 2.10671e-29
751 6 0.001 0.00250007 0 -0.0475 2.7719e-25 0 -7.11987e-13 0 2.10671e-29
901 7 0.001 0.00749993 0 -0.0475 -2.7719e-25 0 -7.11987e-13 0 2.10671e-29
1051 8 0.001 0.0125001 0 -0.0475 2.7719e-25 0 -7.11987e-13 0 2.10671e-29
1201 9 0.001 0.0174999 0 -0.0475 -2.7719e-25 0 -7.11987e-13 0 2.10671e-29
1351 10 0.001 0.0224999 0 -0.0475 -2.7719e-25 0 -7.11987e-13 0 2.10671e-29
2 1 0.001 -0.0224999 0 -0.0468624 2.7719e-25 0 3.59355e-12 0 3.65752e-28
3 1 0.001 -0.0224999 0 -0.0462248 2.7719e-25 0 -2.13147e-12 0 3.68051e-28
4 1 0.001 -0.0224999 0 -0.0455872 2.7719e-25 0 -2.80077e-12 0 1.97763e-28
152 2 0.001 -0.0174999 0 -0.0468624 2.7719e-25 0 3.59355e-12 0 3.65752e-28
153 2 0.001 -0.0174999 0 -0.0462248 2.7719e-25 0 -2.13147e-12 0 3.68051e-28
154 2 0.001 -0.0174999 0 -0.0455872 2.7719e-25 0 -2.80077e-12 0 1.97763e-28
302 3 0.001 -0.0125001 0 -0.0468624 -2.7719e-25 0 3.59355e-12 0 3.65752e-28
303 3 0.001 -0.0125001 0 -0.0462248 -2.7719e-25 0 -2.13147e-12 0 3.68051e-28
304 3 0.001 -0.0125001 0 -0.0455872 -2.7719e-25 0 -2.80077e-12 0 1.97763e-28
452 4 0.001 -0.00750007 0 -0.0468624 -2.7719e-25 0 3.59355e-12 0 3.65752e-28
453 4 0.001 -0.00750007 0 -0.0462248 -2.7719e-25 0 -2.13147e-12 0 3.68051e-28
454 4 0.001 -0.00750007 0 -0.0455872 -2.7719e-25 0 -2.80077e-12 0 1.97763e-28
602 5 0.001 -0.00250007 0 -0.0468624 -2.7719e-25 0 3.59355e-12 0 3.65752e-28
603 5 0.001 -0.00250007 0 -0.0462248 -2.7719e-25 0 -2.13147e-12 0 3.68051e-28
604 5 0.001 -0.00250007 0 -0.0455872 -2.7719e-25 0 -2.80077e-12 0 1.97763e-28
752 6 0.001 0.00250007 0 -0.0468624 2.7719e-25 0 3.59355e-12 0 3.65752e-28
753 6 0.001 0.00250007 0 -0.0462248 2.7719e-25 0 -2.13147e-12 0 3.68051e-28
754 6 0.001 0.00250007 0 -0.0455872 2.7719e-25 0 -2.80077e-12 0 1.97763e-28
902 7 0.001 0.00749993 0 -0.0468624 -2.7719e-25 0 3.59355e-12 0 3.65752e-28
903 7 0.001 0.00749993 0 -0.0462248 -2.7719e-25 0 -2.13147e-12 0 3.68051e-28
904 7 0.001 0.00749993 0 -0.0455872 -2.7719e-25 0 -2.80077e-12 0 1.97763e-28
1052 8 0.001 0.0125001 0 -0.0468624 2.7719e-25 0 3.59355e-12 0 3.65752e-28
1053 8 0.001 0.0125001 0 -0.0462248 2.7719e-25 0 -2.13147e-12 0 3.68051e-28
1054 8 0.001 0.0125001 0 -0.0455872 2.7719e-25 0 -2.80077e-12 0 1.97763e-28
1202 9 0.001 0.0174999 0 -0.0468624 -2.7719e-25 0 3.59355e-12 0 3.65752e-28
1203 9 0.001 0.0174999 0 -0.0462248 -2.7719e-25 0 -2.13147e-12 0 3.68051e-28
1204 9 0.001 0.0174999 0 -0.0455872 -2.7719e-25 0 -2.80077e-12 0 1.97763e-28
1352 10 0.001 0.0224999 0 -0.0468624 -2.7719e-25 0 3.59355e-12 0 3.65752e-28
1353 10 0.001 0.0224999 0 -0.0462248 -2.7719e-25 0 -2.13147e-12 0 3.68051e-28
1354 10 0.001 0.0224999 0 -0.0455872 -2.7719e-25 0 -2.80077e-12 0 1.97763e-28
5 1 0.001 -0.0224999 0 -0.0449497 2.7719e-25 0 2.42483e-12 0 1.80207e-28
6 1 0.001 -0.0224999 0 -0.0443121 2.7719e-25 0 -5.85478e-13 0 7.65771e-30
155 2 0.001 -0.0174999 0 -0.0449497 2.7719e-25 0 2.42483e-12 0 1.80207e-28
156 2 0.001 -0.0174999 0 -0.0443121 2.7719e-25 0 -5.85478e-13 0 7.65771e-30
305 3 0.001 -0.0125001 0 -0.0449497 -2.7719e-25 0 2.42483e-12 0 1.80207e-28
306 3 0.001 -0.0125001 0 -0.0443121 -2.7719e-25 0 -5.85478e-13 0 7.65771e-30
455 4 0.001 -0.00750007 0 -0.0449497 -2.7719e-25 0 2.42483e-12 0 1.80207e-28
456 4 0.001 -0.00750007 0 -0.0443121 -2.7719e-25 0 -5.85478e-13 0 7.65771e-30
605 5 0.001 -0.00250007 0 -0.0449497 -2.7719e-25 0 2.42483e-12 0 1.80207e-28
606 5 0.001 -0.00250007 0 -0.0443121 -2.7719e-25 0 -5.85478e-13 0 7.65771e-30
755 6 0.001 0.00250007 0 -0.0449497 2.7719e-25 0 2.42483e-12 0 1.80207e-28
756 6 0.001 0.00250007 0 -0.0443121 2.7719e-25 0 -5.85478e-13 0 7.65771e-30
905 7 0.001 0.00749993 0 -0.0449497 -2.7719e-25 0 2.42483e-12 0 1.80207e-28
906 7 0.001 0.00749993 0 -0.0443121 -2.7719e-25 0 -5.85478e-13 0 7.65771e-30
1055 8 0.001 0.0125001 0 -0.0449497 2.7719e-25 0 2.42483e-12 0 1.80207e-28
1056 8 0.001 0.0125001 0 -0.0443121 2.7719e-25 0 -5.85478e-13 0 7.65771e-30
1205 9 0.001 0.0174999 0 -0.0449497 -2.7719e-25 0 2.42483e-12 0 1.80207e-28
1206 9 0.001 0.0174999 0 -0.0443121 -2.7719e-25 0 -5.85478e-13 0 7.65771e-30
1355 10 0.001 0.0224999 0 -0.0449497 -2.7719e-25 0 2.42483e-12 0 1.80207e-28
1356 10 0.001 0.0224999 0 -0.0443121 -2.7719e-25 0 -5.85478e-13 0 7.65771e-30
7 1 0.001 -0.0224999 0 -0.0436745 2.7719e-25 0 1.71346e-12 0 9.55569e-29
8 1 0.001 -0.0224999 0 -0.0430369 2.7719e-25 0 -2.46481e-12 0 1.32217e-28
157 2 0.001 -0.0174999 0 -0.0436745 2.7719e-25 0 1.71346e-12 0 9.55569e-29
158 2 0.001 -0.0174999 0 -0.0430369 2.7719e-25 0 -2.46481e-12 0 1.32217e-28
307 3 0.001 -0.0125001 0 -0.0436745 -2.7719e-25 0 1.71346e-12 0 9.55569e-29
308 3 0.001 -0.0125001 0 -0.0430369 -2.7719e-25 0 -2.46481e-12 0 1.32217e-28
457 4 0.001 -0.00750007 0 -0.0436745 -2.7719e-25 0 1.71346e-12 0 9.55569e-29
458 4 0.001 -0.00750007 0 -0.0430369 -2.7719e-25 0 -2.46481e-12 0 1.32217e-28
607 5 0.001 -0.00250007 0 -0.0436745 -2.7719e-25 0 1.71346e-12 0 9.55569e-29
608 5 0.001 -0.00250007 0 -0.0430369 -2.7719e-25 0 -2.46481e-12 0 1.32217e-28
757 6 0.001 0.00250007 0 -0.0436745 2.7719e-25 0 1.71346e-12 0 9.55569e-29
758 6 0.001 0.00250007 0 -0.0430369 2.7719e-25 0 -2.46481e-12 0 1.32217e-28
907 7 0.001 0.00749993 0 -0.0436745 -2.7719e-25 0 1.71346e-12 0 9.55569e-29
908 7 0.001 0.00749993 0 -0.0430369 -2.7719e-25 0 -2.46481e-12 0 1.32217e-28
1057 8 0.001 0.0125001 0 -0.0436745 2.7719e-25 0 1.71346e-12 0 9.55569e-29
1058 8 0.001 0.0125001 0 -0.0430369 2.7719e-25 0 -2.46481e-12 0 1.32217e-28
1207 9 0.001 0.0174999 0 -0.0436745 -2.7719e-25 0 1.71346e-12 0 9.55569e-29
1208 9 0.001 0.0174999 0 -0.0430369 -2.7719e-25 0 -2.46481e-12 0 1.32217e-28
1357 10 0.001 0.0224999 0 -0.0436745 -2.7719e-25 0 1.71346e-12 0 9.55569e-29
1358 10 0.001 0.0224999 0 -0.0430369 -2.7719e-25 0 -2.46481e-12 0 1.32217e-28
9 1 0.001 -0.0224999 0 -0.0423993 2.7719e-25 0 1.00282e-12 0 3.85728e-29
10 1 0.001 -0.0224999 0 -0.0417617 2.7719e-25 0 -4.597e-12 0 8.62132e-28
11 1 0.001 -0.0224999 0 -0.0411242 2.7719e-25 0 9.11013e-12 0 1.72265e-27
159 2 0.001 -0.0174999 0 -0.0423993 2.7719e-25 0 1.00282e-12 0 3.85728e-29
160 2 0.001 -0.0174999 0 -0.0417617 2.7719e-25 0 -4.597e-12 0 8.62132e-28
161 2 0.001 -0.0174999 0 -0.0411242 2.7719e-25 0 9.11013e-12 0 1.72265e-27
309 3 0.001 -0.0125001 0 -0.0423993 -2.7719e-25 0 1.00282e-12 0 3.85728e-29
310 3 0.001 -0.0125001 0 -0.0417617 -2.7719e-25 0 -4.597e-12 0 8.62132e-28
311 3 0.001 -0.0125001 0 -0.0411242 -2.7719e-25 0 9.11013e-12 0 1.72265e-27
459 4 0.001 -0.00750007 0 -0.0423993 -2.7719e-25 0 1.00282e-12 0 3.85728e-29
460 4 0.001 -0.00750007 0 -0.0417617 -2.7719e-25 0 -4.597e-12 0 8.62132e-28
461 4 0.001 -0.00750007 0 -0.0411242 -2.7719e-25 0 9.11013e-12 0 1.72265e-27
609 5 0.001 -0.00250007 0 -0.0423993 -2.7719e-25 0 1.00282e-12 0 3.85728e-29
610 5 0.001 -0.00250007 0 -0.0417617 -2.7719e-25 0 -4.597e-12 0 8.62132e-28
611 5 0.001 -0.00250007 0 -0.0411242 -2.7719e-25 0 9.11013e-12 0 1.72265e-27
759 6 0.001 0.00250007 0 -0.0423993 2.7719e-25 0 1.00282e-12 0 3.85728e-29
760 6 0.001 0.00250007 0 -0.0417617 2.7719e-25 0 -4.597e-12 0 8.62132e-28
761 6 0.001 0.00250007 0 -0.0411242 2.7719e-25 0 9.11013e-12 0 1.72265e-27
909 7 0.001 0.00749993 0 -0.0423993 -2.7719e-25 0 1.00282e-12 0 3.85728e-29
910 7 0.001 0.00749993 0 -0.0417617 -2.7719e-25 0 -4.597e-12 0 8.62132e-28
911 7 0.001 0.00749993 0 -0.0411242 -2.7719e-25 0 9.11013e-12 0 1.72265e-27
1059 8 0.001 0.0125001 0 -0.0423993 2.7719e-25 0 1.00282e-12 0 3.85728e-29
1060 8 0.001 0.0125001 0 -0.0417617 2.7719e-25 0 -4.597e-12 0 8.62132e-28
1061 8 0.001 0.0125001 0 -0.0411242 2.7719e-25 0 9.11013e-12 0 1.72265e-27
1209 9 0.001 0.0174999 0 -0.0423993 -2.7719e-25 0 1.00282e-12 0 3.85728e-29
1210 9 0.001 0.0174999 0 -0.0417617 -2.7719e-25 0 -4.597e-12 0 8.62132e-28
1211 9 0.001 0.0174999 0 -0.0411242 -2.7719e-25 0 9.11013e-12 0 1.72265e-27
1359 10 0.001 0.0224999 0 -0.0423993 -2.7719e-25 0 1.00282e-12 0 3.85728e-29
1360 10 0.001 0.0224999 0 -0.0417617 -2.7719e-25 0 -4.597e-12 0 8.62132e-28
1361 10 0.001 0.0224999 0 -0.0411242 -2.7719e-25 0 9.11013e-12 0 1.72265e-27
12 1 0.001 -0.0224999 0 -0.0404866 2.7719e-25 0 -6.14192e-12 0 9.65528e-28
13 1 0.001 -0.0224999 0 -0.039849 2.7719e-25 0 4.21905e-12 0 3.92252e-28
162 2 0.001 -0.0174999 0 -0.0404866 2.7719e-25 0 -6.14192e-12 0 9.65528e-28
163 2 0.001 -0.0174999 0 -0.039849 2.7719e-25 0 4.21905e-12 0 3.92252e-28
312 3 0.001 -0.0125001 0 -0.0404866 -2.7719e-25 0 -6.14192e-12 0 9.65528e-28
313 3 0.001 -0.0125001 0 -0.039849 -2.7719e-25 0 4.21905e-12 0 3.92252e-28
462 4 0.001 -0.00750007 0 -0.0404866 -2.7719e-25 0 -6.14192e-12 0 9.65528e-28
463 4 0.001 -0.00750007 0 -0.039849 -2.7719e-25 0 4.21905e-12 0 3.92252e-28
612 5 0.001 -0.00250007 0 -0.0404866 -2.7719e-25 0 -6.14192e-12 0 9.65528e-28
613 5 0.001 -0.00250007 0 -0.039849 -2.7719e-25 0 4.21905e-12 0 3.92252e-28
762 6 0.001 0.00250007 0 -0.0404866 2.7719e-25 0 -6.14192e-12 0 9.65528e-28
763 6 0.001 0.00250007 0 -0.039849 2.7719e-25 0 4.21905e-12 0 3.92252e-28
912 7 0.001 0.00749993 0 -0.0404866 -2.7719e-25 0 -6.14192e-12 0 9.65528e-28
913 7 0.001 0.00749993 0 -0.039849 -2.7719e-25 0 4.21905e-12 0 3.92252e-28
1062 8 0.001 0.0125001 0 -0.0404866 2.7719e-25 0 -6.14192e-12 0 9.65528e-28
1063 8 0.001 0.0125001 0 -0.039849 2.7719e-25 0 4.21905e-12 0 3.92252e-28
1212 9 0.001 0.0174999 0 -0.0404866 -2.7719e-25 0 -6.14192e-12 0 9.65528e-28
1213 9 0.001 0.0174999 0 -0.039849 -2.7719e-25 0 4.21905e-12 0 3.92252e-28
1362 10 0.001 0.0224999 0 -0.0404866 -2.7719e-25 0 -6.14192e-12 0 9.65528e-28
1363 10 0.001 0.0224999 0 -0.039849 -2.7719e-25 0 4.21905e-12 0 3.92252e-28
14 1 0.001 -0.0224999 0 -0.0392114 2.7719e-25 0 -1.79601e-12 0 3.16171e-28
15 1 0.001 -0.0224999 0 -0.0385738 2.7719e-25 0 -1.75532e-12 0 6.41004e-29
16 1 0.001 -0.0224999 0 -0.0379362 2.7719e-25 0 -1.7143e-12 0 3.23403e-28
164 2 0.001 -0.0174999 0 -0.0392114 2.7719e-25 0 -1.79601e-12 0 3.16171e-28
165 2 0.001 -0.0174999 0 -0.0385738 2.7719e-25 0 -1.75532e-12 0 6.41004e-29
166 2 0.001 -0.0174999 0 -0.0379362 2.7719e-25 0 -1.7143e-12 0 3.23403e-28
314 3 0.001 -0.0125001 0 -0.0392114 -2.7719e-25 0 -1.79601e-12 0 3.16171e-28
315 3 0.001 -0.0125001 0 -0.0385738 -2.7719e-25 0 -1.75532e-12 0 6.41004e-29
316 3 0.001 -0.0125001 0 -0.0379362 -2.7719e-25 0 -1.7143e-12 0 3.23403e-28
464 4 0.001 -0.00750007 0 -0.0392114 -2.7719e-25 0 -1.79601e-12 0 3.16171e-28
465 4 0.001 -0.00750007 0 -0.0385738 -2.7719e-25 0 -1.75532e-12 0 6.41004e-29
466 4 0.001 -0.00750007 0 -0.0379362 -2.7719e-25 0 -1.7143e-12 0 3.23403e-28
614 5 0.001 -0.00250007 0 -0.0392114 -2.7719e-25 0 -1.79601e-12 0 3.16171e-28
615 5 0.001 -0.00250007 0 -0.0385738 -2.7719e-25 0 -1.75532e-12 0 6.41004e-29
616 5 0.001 -0.00250007 0 -0.0379362 -2.7719e-25 0 -1.7143e-12 0 3.23403e-28
764 6 0.001 0.00250007 0 -0.0392114 2.7719e-25 0 -1.79601e-12 0 3.16171e-28
765 6 0.001 0.00250007 0 -0.0385738 2.7719e-25 0 -1.75532e-12 0 6.41004e-29
766 6 0.001 0.00250007 0 -0.0379362 2.7719e-25 0 -1.7143e-12 0 3.23403e-28
914 7 0.001 0.00749993 0 -0.0392114 -2.7719e-25 0 -1.79601e-12 0 3.16171e-28
915 7 0.001 0.00749993 0 -0.0385738 -2.7719e-25 0 -1.75532e-12 0 6.41004e-29
916 7 0.001 0.00749993 0 -0.0379362 -2.7719e-25 0 -1.7143e-12 0 3.23403e-28
1064 8 0.001 0.0125001 0 -0.0392114 2.7719e-25 0 -1.79601e-12 0 3.16171e-28
1065 8 0.001 0.0125001 0 -0.0385738 2.7719e-25 0 -1.75532e-12 0 6.41004e-29
1066 8 0.001 0.0125001 0 -0.0379362 2.7719e-25 0 -1.7143e-12 0 3.23403e-28
1214 9 0.001 0.0174999 0 -0.0392114 -2.7719e-25 0 -1.79601e-12 0 3.16171e-28
1215 9 0.001 0.0174999 0 -0.0385738 -2.7719e-25 0 -1.75532e-12 0 6.41004e-29
1216 9 0.001 0.0174999 0 -0.0379362 -2.7719e-25 0 -1.7143e-12 0 3.23403e-28
1364 10 0.001 0.0224999 0 -0.0392114 -2.7719e-25 0 -1.79601e-12 0 3.16171e-28
1365 10 0.001 0.0224999 0 -0.0385738 -2.7719e-25 0 -1.75532e-12 0 6.41004e-29
1366 10 0.001 0.0224999 0 -0.0379362 -2.7719e-25 0 -1.7143e-12 0 3.23403e-28
17 1 0.001 -0.0224999 0 -0.0372987 2.7719e-25 0 3.34383e-12 0 3.09001e-28
18 1 0.001 -0.0224999 0 -0.0366611 2.7719e-25 0 -2.75892e-12 0 1.95232e-28
167 2 0.001 -0.0174999 0 -0.0372987 2.7719e-25 0 3.34383e-12 0 3.09001e-28
168 2 0.001 -0.0174999 0 -0.0366611 2.7719e-25 0 -2.75892e-12 0 1.95232e-28
317 3 0.001 -0.0125001 0 -0.0372987 -2.7719e-25 0 3.34383e-12 0 3.09001e-28
318 3 0.001 -0.0125001 0 -0.0366611 -2.7719e-25 0 -2.75892e-12 0 1.95232e-28
467 4 0.001 -0.00750007 0 -0.0372987 -2.7719e-25 0 3.34383e-12 0 3.09001e-28
468 4 0.001 -0.00750007 0 -0.0366611 -2.7719e-25 0 -2.75892e-12 0 1.95232e-28
617 5 0.001 -0.00250007 0 -0.0372987 -2.7719e-25 0 3.34383e-12 0 3.09001e-28
618 5 0.001 -0.00250007 0 -0.0366611 -2.7719e-25 0 -2.75892e-12 0 1.95232e-28
767 6 0.001 0.00250007 0 -0.0372987 2.7719e-25 0 3.34383e-12 0 3.09001e-28
768 6 0.001 0.00250007 0 -0.0366611 2.7719e-25 0 -2.75892e-12 0 1.95232e-28
917 7 0.001 0.00749993 0 -0.0372987 -2.7719e-25 0 3.34383e-12 0 3.09001e-28
918 7 0.001 0.00749993 0 -0.0366611 -2.7719e-25 0 -2.75892e-12 0 1.95232e-28
1067 8 0.001 0.0125001 0 -0.0372987 2.7719e-25 0 3.34383e-12 0 3.09001e-28
1068 8 0.001 0.0125001 0 -0.0366611 2.7719e-25 0 -2.75892e-12 0 1.95232e-28
1217 9 0.001 0.0174999 0 -0.0372987 -2.7719e-25 0 3.34383e-12 0 3.09001e-28
1218 9 0.001 0.0174999 0 -0.0366611 -2.7719e-25 0 -2.75892e-12 0 1.95232e-28
1367 10 0.001 0.0224999 0 -0.0372987 -2.7719e-25 0 3.34383e-12 0 3.09001e-28
1368 10 0.001 0.0224999 0 -0.0366611 -2.7719e-25 0 -2.75892e-12 0 1.95232e-28
19 1 0.001 -0.0224999 0 -0.0360235 2.7719e-25 0 7.22931e-12 0 1.28825e-27
20 1 0.001 -0.0224999 0 -0.0353859 2.7719e-25 0 -7.56356e-12 0 1.34978e-27
169 2 0.001 -0.0174999 0 -0.0360235 2.7719e-25 0 7.22931e-12 0 1.28825e-27
170 2 0.001 -0.0174999 0 -0.0353859 2.7719e-25 0 -7.56356e-12 0 1.34978e-27
319 3 0.001 -0.0125001 0 -0.0360235 -2.7719e-25 0 7.22931e-12 0 1.28825e-27
320 3 0.001 -0.0125001 0 -0.0353859 -2.7719e-25 0 -7.56356e-12 0 1.34978e-27
469 4 0.001 -0.00750007 0 -0.0360235 -2.7719e-25 0 7.22931e-12 0 1.28825e-27
470 4 0.001 -0.00750007 0 -0.0353859 -2.7719e-25 0 -7.56356e-12 0 1.34978e-27
619 5 0.001 -0.00250007 0 -0.0360235 -2.7719e-25 0 7.22931e-12 0 1.28825e-27
620 5 0.001 -0.00250007 0 -0.0353859 -2.7719e-25 0 -7.56356e-12 0 1.34978e-27
769 6 0.001 0.00250007 0 -0.0360235 2.7719e-25 0 7.22931e-12 0 1.28825e-27
770 6 0.001 0.00250007 0 -0.0353859 2.7719e-25 0 -7.56356e-12 0 1.34978e-27
919 7 0.001 0.00749993 0 -0.0360235 -2.7719e-25 0 7.22931e-12 0 1.28825e-27
920 7 0.001 0.00749993 0 -0.0353859 -2.7719e-25 0 -7.56356e-12 0 1.34978e-27
1069 8 0.001 0.0125001 0 -0.0360235 2.7719e-25 0 7.22931e-12 0 1.28825e-27
1070 8 0.001 0.0125001 0 -0.0353859 2.7719e-25 0 -7.56356e-12 0 1.34978e-27
1219 9 0.001 0.0174999 0 -0.0360235 -2.7719e-25 0 7.22931e-12 0 1.28825e-27
1220 9 0.001 0.0174999 0 -0.0353859 -2.7719e-25 0 -7.56356e-12 0 1.34978e-27
1369 10 0.001 0.0224999 0 -0.0360235 -2.7719e-25 0 7.22931e-12 0 1.28825e-27
1370 10 0.001 0.0224999 0 -0.0353859 -2.7719e-25 0 -7.56356e-12 0 1.34978e-27
21 1 0.001 -0.0224999 0 -0.0347483 2.7719e-25 0 -1.67053e-13 0 5.061e-28
22 1 0.001 -0.0224999 0 -0.0341107 2.7719e-25 0 3.88704e-12 0 3.44191e-28
23 1 0.001 -0.0224999 0 -0.0334732 2.7719e-25 0 1.29548e-12 0 3.61327e-28
171 2 0.001 -0.0174999 0 -0.0347483 2.7719e-25 0 -1.67053e-13 0 5.061e-28
172 2 0.001 -0.0174999 0 -0.0341107 2.7719e-25 0 3.88704e-12 0 3.44191e-28
173 2 0.001 -0.0174999 0 -0.0334732 2.7719e-25 0 1.29548e-12 0 3.61327e-28
321 3 0.001 -0.0125001 0 -0.0347483 -2.7719e-25 0 -1.67053e-13 0 5.061e-28
322 3 0.001 -0.0125001 0 -0.0341107 -2.7719e-25 0 3.88704e-12 0 3.44191e-28
323 3 0.001 -0.0125001 0 -0.0334732 -2.7719e-25 0 1.29548e-12 0 3.61327e-28
471 4 0.001 -0.00750007 0 -0.0347483 -2.7719e-25 0 -1.67053e-13 0 5.061e-28
472 4 0.001 -0.00750007 0 -0.0341107 -2.7719e-25 0 3.88704e-12 0 3.44191e-28
473 4 0.001 -0.00750007 0 -0.0334732 -2.7719e-25 0 1.29548e-12 0 3.61327e-28
621 5 0.001 -0.00250007 0 -0.0347483 -2.7719e-25 0 -1.67053e-13 0 5.061e-28
622 5 0.001 -0.00250007 0 -0.0341107 -2.7719e-25 0 3.88704e-12 0 3.44191e-28
623 5 0.001 -0.00250007 0 -0.0334732 -2.7719e-25 0 1.29548e-12 0 3.61327e-28
771 6 0.001 0.00250007 0 -0.0347483 2.7719e-25 0 -1.67053e-13 0 5.061e-28
772 6 0.001 0.00250007 0 -0.0341107 2.7719e-25 0 3.88704e-12 0 3.44191e-28
773 6 0.001 0.00250007 0 -0.0334732 2.7719e-25 0 1.29548e-12 0 3.61327e-28
921 7 0.001 0.00749993 0 -0.0347483 -2.7719e-25 0 -1.67053e-13 0 5.061e-28
922 7 0.001 0.00749993 0 -0.0341107 -2.7719e-25 0 3.88704e-12 0 3.44191e-28
923 7 0.001 0.00749993 0 -0.0334732 -2.7719e-25 0 1.29548e-12 0 3.61327e-28
1071 8 0.001 0.0125001 0 -0.0347483 2.7719e-25 0 -1.67053e-13 0 5.061e-28
1072 8 0.001 0.0125001 0 -0.0341107 2.7719e-25 0 3.88704e-12 0 3.44191e-28
1073 8 0.001 0.0125001 0 -0.0334732 2.7719e-25 0 1.29548e-12 0 3.61327e-28
1221 9 0.001 0.0174999 0 -0.0347483 -2.7719e-25 0 -1.67053e-13 0 5.061e-28
1222 9 0.001 0.0174999 0 -0.0341107 -2.7719e-25 0 3.88704e-12 0 3.44191e-28
1223 9 0.001 0.0174999 0 -0.0334732 -2.7719e-25 0 1.29548e-12 0 3.61327e-28
1371 10 0.001 0.0224999 0 -0.0347483 -2.7719e-25 0 -1.67053e-13 0 5.061e-28
1372 10 0.001 0.0224999 0 -0.0341107 -2.7719e-25 0 3.88704e-12 0 3.44191e-28
1373 10 0.001 0.0224999 0 -0.0334732 -2.7719e-25 0 1.29548e-12 0 3.61327e-28
24 1 0.001 -0.0224999 0 -0.0328356 2.7719e-25 0 -1.37947e-12 0 3.52352e-28
25 1 0.001 -0.0224999 0 -0.032198 2.7719e-25 0 -3.55147e-12 0 2.84717e-28
174 2 0.001 -0.0174999 0 -0.0328356 2.7719e-25 0 -1.37947e-12 0 3.52352e-28
175 2 0.001 -0.0174999 0 -0.032198 2.7719e-25 0 -3.55147e-12 0 2.84717e-28
324 3 0.001 -0.0125001 0 -0.0328356 -2.7719e-25 0 -1.37947e-12 0 3.52352e-28
325 3 0.001 -0.0125001 0 -0.032198 -2.7719e-25 0 -3.55147e-12 0 2.84717e-28
474 4 0.001 -0.00750007 0 -0.0328356 -2.7719e-25 0 -1.37947e-12 0 3.52352e-28
475 4 0.001 -0.00750007 0 -0.032198 -2.7719e-25 0 -3.55147e-12 0 2.84717e-28
624 5 0.001 -0.00250007 0 -0.0328356 -2.7719e-25 0 -1.37947e-12 0 3.52352e-28
625 5 0.001 -0.00250007 0 -0.032198 -2.7719e-25 0 -3.55147e-12 0 2.84717e-28
774 6 0.001 0.00250007 0 -0.0328356 2.7719e-25 0 -1.37947e-12 0 3.52352e-28
775 6 0.001 0.00250007 0 -0.032198 2.7719e-25 0 -3.55147e-12 0 2.84717e-28
924 7 0.001 0.00749993 0 -0.0328356 -2.7719e-25 0 -1.37947e-12 0 3.52352e-28
925 7 0.001 0.00749993 0 -0.032198 -2.7719e-25 0 -3.55147e-12 0 2.84717e-28
1074 8 0.001 0.0125001 0 -0.0328356 2.7719e-25 0 -1.37947e-12 0 3.52352e-28
1075 8 0.001 0.0125001 0 -0.032198 2.7719e-25 0 -3.55147e-12 0 2.84717e-28
1224 9 0.001 0.0174999 0 -0.0328356 -2.7719e-25 0 -1.37947e-12 0 3.52352e-28
1225 9 0.001 0.0174999 0 -0.032198 -2.7719e-25 0 -3.55147e-12 0 2.84717e-28
1374 10 0.001 0.0224999 0 -0.0328356 -2.7719e-25 0 -1.37947e-12 0 3.52352e-28
1375 10 0.001 0.0224999 0 -0.032198 -2.7719e-25 0 -3.55147e-12 0 2.84717e-28
26 1 0.001 -0.0224999 0 -0.0315604 2.7719e-25 0 2.34069e-12 0 2.1974e-28
27 1 0.001 -0.0224999 0 -0.0309228 2.7719e-25 0 -2.72507e-13 0 2.2964e-30
176 2 0.001 -0.0174999 0 -0.0315604 2.7719e-25 0 2.34069e-12 0 2.1974e-28
177 2 0.001 -0.0174999 0 -0.0309228 2.7719e-25 0 -2.72507e-13 0 2.2964e-30
326 3 0.001 -0.0125001 0 -0.0315604 -2.7719e-25 0 2.34069e-12 0 2.1974e-28
327 3 0.001 -0.0125001 0 -0.0309228 -2.7719e-25 0 -2.72507e-13 0 2.2964e-30
476 4 0.001 -0.00750007 0 -0.0315604 -2.7719e-25 0 2.34069e-12 0 2.1974e-28
477 4 0.001 -0.00750007 0 -0.0309228 -2.7719e-25 0 -2.72507e-13 0 2.2964e-30
626 5 0.001 -0.00250007 0 -0.0315604 -2.7719e-25 0 2.34069e-12 0 2.1974e-28
627 5 0.001 -0.00250007 0 -0.0309228 -2.7719e-25 0 -2.72507e-13 0 2.2964e-30
776 6 0.001 0.00250007 0 -0.0315604 2.7719e-25 0 2.34069e-12 0 2.1974e-28
777 6 0.001 0.00250007 0 -0.0309228 2.7719e-25 0 -2.72507e-13 0 2.2964e-30
926 7 0.001 0.00749993 0 -0.0315604 -2.7719e-25 0 2.34069e-12 0 2.1974e-28
927 7 0.001 0.00749993 0 -0.0309228 -2.7719e-25 0 -2.72507e-13 0 2.2964e-30
1076 8 0.001 0.0125001 0 -0.0315604 2.7719e-25 0 2.34069e-12 0 2.1974e-28
1077 8 0.001 0.0125001 0 -0.0309228 2.7719e-25 0 -2.72507e-13 0 2.2964e-30
1226 9 0.001 0.0174999 0 -0.0315604 -2.7719e-25 0 2.34069e-12 0 2.1974e-28
1227 9 0.001 0.0174999 0 -0.0309228 -2.7719e-25 0 -2.72507e-13 0 2.2964e-30
1376 10 0.001 0.0224999 0 -0.0315604 -2.7719e-25 0 2.34069e-12 0 2.1974e-28
1377 10 0.001 0.0224999 0 -0.0309228 -2.7719e-25 0 -2.72507e-13 0 2.2964e-30
28 1 0.001 -0.0224999 0 -0.0302852 2.7719e-25 0 -1.06562e-12 0 7.21101e-29
29 1 0.001 -0.0224999 0 -0.0296477 2.7719e-25 0 1.94327e-12 0 8.71916e-29
30 1 0.001 -0.0224999 0 -0.0290101 2.7719e-25 0 -1.98538e-12 0 9.17656e-29
178 2 0.001 -0.0174999 0 -0.0302852 2.7719e-25 0 -1.06562e-12 0 7.21101e-29
179 2 0.001 -0.0174999 0 -0.0296477 2.7719e-25 0 1.94327e-12 0 8.71916e-29
180 2 0.001 -0.0174999 0 -0.0290101 2.7719e-25 0 -1.98538e-12 0 9.17656e-29
328 3 0.001 -0.0125001 0 -0.0302852 -2.7719e-25 0 -1.06562e-12 0 7.21101e-29
329 3 0.001 -0.0125001 0 -0.0296477 -2.7719e-25 0 1.94327e-12 0 8.71916e-29
330 3 0.001 -0.0125001 0 -0.0290101 -2.7719e-25 0 -1.98538e-12 0 9.17656e-29
478 4 0.001 -0.00750007 0 -0.0302852 -2.7719e-25 0 -1.06562e-12 0 7.21101e-29
479 4 0.001 -0.00750007 0 -0.0296477 -2.7719e-25 0 1.94327e-12 0 8.71916e-29
480 4 0.001 -0.00750007 0 -0.0290101 -2.7719e-25 0 -1.98538e-12 0 9.17656e-29
628 5 0.001 -0.00250007 0 -0.0302852 -2.7719e-25 0 -1.06562e-12 0 7.21101e-29
629 5 0.001 -0.00250007 0 -0.0296477 -2.7719e-25 0 1.94327e-12 0 8.71916e-29
630 5 0.001 -0.00250007 0 -0.0290101 -2.7719e-25 0 -1.98538e-12 0 9.17656e-29
778 6 0.001 0.00250007 0 -0.0302852 2.7719e-25 0 -1.06562e-12 0 7.21101e-29
779 6 0.001 0.00250007 0 -0.0296477 2.7719e-25 0 1.94327e-12 0 8.71916e-29
780 6 0.001 0.00250007 0 -0.0290101 2.7719e-25 0 -1.98538e-12 0 9.17656e-29
928 7 0.001 0.00749993 0 -0.0302852 -2.7719e-25 0 -1.06562e-12 0 7.21101e-29
929 7 0.001 0.00749993 0 -0.0296477 -2.7719e-25 0 1.94327e-12 0 8.71916e-29
930 7 0.001 0.00749993 0 -0.0290101 -2.7719e-25 0 -1.98538e-12 0 9.17656e-29
1078 8 0.001 0.0125001 0 -0.0302852 2.7719e-25 0 -1.06562e-12 0 7.21101e-29
1079 8 0.001 0.0125001 0 -0.0296477 2.7719e-25 0 1.94327e-12 0 8.71916e-29
1080 8 0.001 0.0125001 0 -0.0290101 2.7719e-25 0 -1.98538e-12 0 9.17656e-29
1228 9 0.001 0.0174999 0 -0.0302852 -2.7719e-25 0 -1.06562e-12 0 7.21101e-29
1229 9 0.001 0.0174999 0 -0.0296477 -2.7719e-25 0 1.94327e-12 0 8.71916e-29
1230 9 0.001 0.0174999 0 -0.0290101 -2.7719e-25 0 -1.98538e-12 0 9.17656e-29
1378 10 0.001 0.0224999 0 -0.0302852 -2.7719e-25 0 -1.06562e-12 0 7.21101e-29
1379 10 0.001 0.0224999 0 -0.0296477 -2.7719e-25 0 1.94327e-12 0 8.71916e-29
1380 10 0.001 0.0224999 0 -0.0290101 -2.7719e-25 0 -1.98538e-12 0 9.17656e-29
31 1 0.001 -0.0224999 0 -0.0283725 2.7719e-25 0 2.32035e-13 0 1.25544e-28
32 1 0.001 -0.0224999 0 -0.0277349 2.7719e-25 0 3.59277e-12 0 3.07341e-28
181 2 0.001 -0.0174999 0 -0.0283725 2.7719e-25 0 2.32035e-13 0 1.25544e-28
182 2 0.001 -0.0174999 0 -0.0277349 2.7719e-25 0 3.59277e-12 0 3.07341e-28
331 3 0.001 -0.0125001 0 -0.0283725 -2.7719e-25 0 2.32035e-13 0 1.25544e-28
332 3 0.001 -0.0125001 0 -0.0277349 -2.7719e-25 0 3.59277e-12 0 3.07341e-28
481 4 0.001 -0.00750007 0 -0.0283725 -2.7719e-25 0 2.32035e-13 0 1.25544e-28
482 4 0.001 -0.00750007 0 -0.0277349 -2.7719e-25 0 3.59277e-12 0 3.07341e-28
631 5 0.001 -0.00250007 0 -0.0283725 -2.7719e-25 0 2.32035e-13 0 1.25544e-28
632 5 0.001 -0.00250007 0 -0.0277349 -2.7719e-25 0 3.59277e-12 0 3.07341e-28
781 6 0.001 0.00250007 0 -0.0283725 2.7719e-25 0 2.32035e-13 0 1.25544e-28
782 6 0.001 0.00250007 0 -0.0277349 2.7719e-25 0 3.59277e-12 0 3.07341e-28
931 7 0.001 0.00749993 0 -0.0283725 -2.7719e-25 0 2.32035e-13 0 1.25544e-28
932 7 0.001 0.00749993 0 -0.0277349 -2.7719e-25 0 3.59277e-12 0 3.07341e-28
1081 8 0.001 0.0125001 0 -0.0283725 2.7719e-25 0 2.32035e-13 0 1.25544e-28
1082 8 0.001 0.0125001 0 -0.0277349 2.7719e-25 0 3.59277e-12 0 3.07341e-28
1231 9 0.001 0.0174999 0 -0.0283725 -2.7719e-25 0 2.32035e-13 0 1.25544e-28
1232 9 0.001 0.0174999 0 -0.0277349 -2.7719e-25 0 3.59277e-12 0 3.07341e-28
1381 10 0.001 0.0224999 0 -0.0283725 -2.7719e-25 0 2.32035e-13 0 1.25544e-28
1382 10 0.001 0.0224999 0 -0.0277349 -2.7719e-25 0 3.59277e-12 0 3.07341e-28
33 1 0.001 -0.0224999 0 -0.0270973 2.7719e-25 0 -1.21224e-12 0 3.23482e-28
34 1 0.001 -0.0224999 0 -0.0264597 2.7719e-25 0 -1.96538e-12 0 8.70817e-29
35 1 0.001 -0.0224999 0 -0.0258221 2.7719e-25 0 3.07304e-12 0 2.55002e-28
183 2 0.001 -0.0174999 0 -0.0270973 2.7719e-25 0 -1.21224e-12 0 3.23482e-28
184 2 0.001 -0.0174999 0 -0.0264597 2.7719e-25 0 -1.96538e-12 0 8.70817e-29
185 2 0.001 -0.0174999 0 -0.0258221 2.7719e-25 0 3.07304e-12 0 2.55002e-28
333 3 0.001 -0.0125001 0 -0.0270973 -2.7719e-25 0 -1.21224e-12 0 3.23482e-28
334 3 0.001 -0.0125001 0 -0.0264597 -2.7719e-25 0 -1.96538e-12 0 8.70817e-29
335 3 0.001 -0.0125001 0 -0.0258221 -2.7719e-25 0 3.07304e-12 0 2.55002e-28
483 4 0.001 -0.00750007 0 -0.0270973 -2.7719e-25 0 -1.21224e-12 0 3.23482e-28
484 4 0.001 -0.00750007 0 -0.0264597 -2.7719e-25 0 -1.96538e-12 0 8.70817e-29
485 4 0.001 -0.00750007 0 -0.0258221 -2.7719e-25 0 3.07304e-12 0 2.55002e-28
633 5 0.001 -0.00250007 0 -0.0270973 -2.7719e-25 0 -1.21224e-12 0 3.23482e-28
634 5 0.001 -0.00250007 0 -0.0264597 -2.7719e-25 0 -1.96538e-12 0 8.70817e-29
635 5 0.001 -0.00250007 0 -0.0258221 -2.7719e-25 0 3.07304e-12 0 2.55002e-28
783 6 0.001 0.00250007 0 -0.0270973 2.7719e-25 0 -1.21224e-12 0 3.23482e-28
784 6 0.001 0.00250007 0 -0.0264597 2.7719e-25 0 -1.96538e-12 0 8.70817e-29
785 6 0.001 0.00250007 0 -0.0258221 2.7719e-25 0 3.07304e-12 0 2.55002e-28
933 7 0.001 0.00749993 0 -0.0270973 -2.7719e-25 0 -1.21224e-12 0 3.23482e-28
934 7 0.001 0.00749993 0 -0.0264597 -2.7719e-25 0 -1.96538e-12 0 8.70817e-29
935 7 0.001 0.00749993 0 -0.0258221 -2.7719e-25 0 3.07304e-12 0 2.55002e-28
1083 8 0.001 0.0125001 0 -0.0270973 2.7719e-25 0 -1.21224e-12 0 3.23482e-28
1084 8 0.001 0.0125001 0 -0.0264597 2.7719e-25 0 -1.96538e-12 0 8.70817e-29
1085 8 0.001 0.0125001 0 -0.0258221 2.7719e-25 0 3.07304e-12 0 2.55002e-28
1233 9 0.001 0.0174999 0 -0.0270973 -2.7719e-25 0 -1.21224e-12 0 3.23482e-28
1234 9 0.001 0.0174999 0 -0.0264597 -2.7719e-25 0 -1.96538e-12 0 8.70817e-29
1235 9 0.001 0.0174999 0 -0.0258221 -2.7719e-25 0 3.07304e-12 0 2.55002e-28
1383 10 0.001 0.0224999 0 -0.0270973 -2.7719e-25 0 -1.21224e-12 0 3.23482e-28
1384 10 0.001 0.0224999 0 -0.0264597 -2.7719e-25 0 -1.96538e-12 0 8.70817e-29
1385 10 0.001 0.0224999 0 -0.0258221 -2.7719e-25 0 3.07304e-12 0 2.55002e-28
36 1 0.001 -0.0224999 0 -0.0251846 2.7719e-25 0 -4.99505e-12 0 5.18765e-28
37 1 0.001 -0.0224999 0 -0.024547 2.7719e-25 0 3.11394e-12 0 2.93971e-28
186 2 0.001 -0.0174999 0 -0.0251846 2.7719e-25 0 -4.99505e-12 0 5.18765e-28
187 2 0.001 -0.0174999 0 -0.024547 2.7719e-25 0 3.11394e-12 0 2.93971e-28
336 3 0.001 -0.0125001 0 -0.0251846 -2.7719e-25 0 -4.99505e-12 0 5.18765e-28
337 3 0.001 -0.0125001 0 -0.024547 -2.7719e-25 0 3.11394e-12 0 2.93971e-28
486 4 0.001 -0.00750007 0 -0.0251846 -2.7719e-25 0 -4.99505e-12 0 5.18765e-28
487 4 0.001 -0.00750007 0 -0.024547 -2.7719e-25 0 3.11394e-12 0 2.93971e-28
636 5 0.001 -0.00250007 0 -0.0251846 -2.7719e-25 0 -4.99505e-12 0 5.18765e-28
637 5 0.001 -0.00250007 0 -0.024547 -2.7719e-25 0 3.11394e-12 0 2.93971e-28
786 6 0.001 0.00250007 0 -0.0251846 2.7719e-25 0 -4.99505e-12 0 5.18765e-28
787 6 0.001 0.00250007 0 -0.024547 2.7719e-25 0 3.11394e-12 0 2.93971e-28
936 7 0.001 0.00749993 0 -0.0251846 -2.7719e-25 0 -4.99505e-12 0 5.18765e-28
937 7 0.001 0.00749993 0 -0.024547 -2.7719e-25 0 3.11394e-12 0 2.93971e-28
1086 8 0.001 0.0125001 0 -0.0251846 2.7719e-25 0 -4.99505e-12 0 5.18765e-28
1087 8 0.001 0.0125001 0 -0.024547 2.7719e-25 0 3.11394e-12 0 2.93971e-28
1236 9 0.001 0.0174999 0 -0.0251846 -2.7719e-25 0 -4.99505e-12 0 5.18765e-28
1237 9 0.001 0.0174999 0 -0.024547 -2.7719e-25 0 3.11394e-12 0 2.93971e-28
1386 10 0.001 0.0224999 0 -0.0251846 -2.7719e-25 0 -4.99505e-12 0 5.18765e-28
1387 10 0.001 0.0224999 0 -0.024547 -2.7719e-25 0 3.11394e-12 0 2.93971e-28
38 1 0.001 -0.0224999 0 -0.0239094 2.7719e-25 0 -1.37916e-12 0 4.24717e-29
39 1 0.001 -0.0224999 0 -0.0232718 2.7719e-25 0 -9.41203e-13 0 1.6959e-28
188 2 0.001 -0.0174999 0 -0.0239094 2.7719e-25 0 -1.37916e-12 0 4.24717e-29
189 2 0.001 -0.0174999 0 -0.0232718 2.7719e-25 0 -9.41203e-13 0 1.6959e-28
338 3 0.001 -0.0125001 0 -0.0239094 -2.7719e-25 0 -1.37916e-12 0 4.24717e-29
339 3 0.001 -0.0125001 0 -0.0232718 -2.7719e-25 0 -9.41203e-13 0 1.6959e-28
488 4 0.001 -0.00750007 0 -0.0239094 -2.7719e-25 0 -1.37916e-12 0 4.24717e-29
489 4 0.001 -0.00750007 0 -0.0232718 -2.7719e-25 0 -9.41203e-13 0 1.6959e-28
638 5 0.001 -0.00250007 0 -0.0239094 -2.7719e-25 0 -1.37916e-12 0 4.24717e-29
639 5 0.001 -0.00250007 0 -0.0232718 -2.7719e-25 0 -9.41203e-13 0 1.6959e-28
788 6 0.001 0.00250007 0 -0.0239094 2.7719e-25 0 -1.37916e-12 0 4.24717e-29
789 6 0.001 0.00250007 0 -0.0232718 2.7719e-25 0 -9.41203e-13 0 1.6959e-28
938 7 0.001 0.00749993 0 -0.0239094 -2.7719e-25 0 -1.37916e-12 0 4.24717e-29
939 7 0.001 0.00749993 0 -0.0232718 -2.7719e-25 0 -9.41203e-13 0 1.6959e-28
1088 8 0.001 0.0125001 0 -0.0239094 2.7719e-25 0 -1.37916e-12 0 4.24717e-29
1089 8 0.001 0.0125001 0 -0.0232718 2.7719e-25 0 -9.41203e-13 0 1.6959e-28
1238 9 0.001 0.0174999 0 -0.0239094 -2.7719e-25 0 -1.37916e-12 0 4.24717e-29
1239 9 0.001 0.0174999 0 -0.0232718 -2.7719e-25 0 -9.41203e-13 0 1.6959e-28
1388 10 0.001 0.0224999 0 -0.0239094 -2.7719e-25 0 -1.37916e-12 0 4.24717e-29
1389 10 0.001 0.0224999 0 -0.0232718 -2.7719e-25 0 -9.41203e-13 0 1.6959e-28