ITEM: TIMESTEP
1300000
ITEM: NUMBER OF ATOMS
6
ITEM: BOX BOUNDS pp pp ff
-2.5000000000000000e-01 2.5000000000000000e-01
-2.5000000000000000e-01 2.5000000000000000e-01
-1.0000000000000001e-01 1.0000000000000001e-01
ITEM: ATOMS id type radius x y z fx fy fz c_bendingE c_stretchingE
6 1 0.015 -0.0148589 -0.0148589 -0.0269086 9.71862 9.71862 11.0442 0.000335431 0.0289396
5 1 0.015 -0.0085496 -0.0085496 -0.0166629 -3.8684 -3.8684 -1.49172 0.000972999 0.0501915
4 1 0.015 -0.0028681 -0.0028681 -0.00635018 3.15613 3.15613 39.5454 0.0112679 0.125743
3 1 0.015 0.00371309 0.00371309 0.00765378 -2.5031 -2.5031 -124.71 0.0414333 0.104796
2 1 0.015 0.00941144 0.00941144 0.0141778 -22.9571 -22.9571 97.8811 0.0407957 0.0539965
1 1 0.015 0.0131536 0.0131536 0.0280902 16.4538 16.4538 -22.269 0.0305008 0.053691
