ITEM: TIMESTEP
1200000
ITEM: NUMBER OF ATOMS
6
ITEM: BOX BOUNDS pp pp ff
-2.5000000000000000e-01 2.5000000000000000e-01
-2.5000000000000000e-01 2.5000000000000000e-01
-1.0000000000000001e-01 1.0000000000000001e-01
ITEM: ATOMS id type radius x y z fx fy fz c_bendingE c_stretchingE
1 1 0.015 0 0 -0.0368829 0 0 69.7625 0 0.143066
2 1 0.015 0 0 -0.0189088 0 0 -97.6325 0 0.14603
3 1 0.015 0 0 -0.00776116 0 0 16.9251 0 0.0206745
4 1 0.015 0 0 0.00504446 0 0 80.8228 0 0.153347
5 1 0.015 0 0 0.0228087 0 0 -43.8581 0 0.154443
6 1 0.015 0 0 0.0356997 0 0 -26.0197 0 0.0188063
