ITEM: TIMESTEP
3600000
ITEM: NUMBER OF ATOMS
1500
ITEM: BOX BOUNDS ff ff ff
-2.5000000000000001e-02 2.5000000000000001e-02
-5.0000000000000001e-03 5.0000000000000001e-03
-5.0000000000000003e-02 5.0000000000000003e-02
ITEM: ATOMS id type radius x y z fx fy fz c_bendingE c_stretchingE
1 1 0.001 -0.0225 0 -0.04066 -0.209586 0 -3.8e-09 1.48407e-06 1.59293e-34
2 1 0.001 -0.0225 0 -0.0400224 0.209138 0 -0.0169338 2.95855e-06 1.1892e-08
3 1 0.001 -0.0224577 0 -0.0393891 -4.42348e-13 0 -1.75956e-12 4.40777e-06 2.36684e-08
151 2 0.001 -0.0175 0 -0.04066 -0.203945 0 -3.8e-09 1.40518e-06 1.59293e-34
152 2 0.001 -0.0175 0 -0.0400224 0.204118 0 -0.0176613 2.79232e-06 1.28768e-08
153 2 0.001 -0.0174589 0 -0.0393891 2.63607e-11 0 -1.75919e-12 4.14627e-06 2.55769e-08
301 3 0.001 -0.0125 0 -0.04066 -0.190957 0 -3.8e-09 1.23175e-06 1.59293e-34
302 3 0.001 -0.0125 0 -0.0400224 0.191194 0 -0.0195989 2.44528e-06 1.58626e-08
303 3 0.001 -0.0124615 0 -0.0393892 6.88239e-12 0 -1.72646e-12 3.62589e-06 3.15291e-08
451 4 0.001 -0.0075 0 -0.04066 -0.16053 0 -3.8e-09 8.70258e-07 1.59293e-34
452 4 0.001 -0.0075 0 -0.0400224 0.160374 0 -0.0226394 1.72979e-06 2.1235e-08
453 4 0.001 -0.00746769 0 -0.0393894 5.88077e-12 0 1.11178e-11 2.5665e-06 4.23207e-08
601 5 0.001 -0.0025 0 -0.04066 -0.130108 0 -3.8e-09 5.71541e-07 1.59293e-34
602 5 0.001 -0.0025 0 -0.0400224 0.134461 0 -0.0121433 1.10137e-06 5.93068e-09
603 5 0.001 -0.00247374 0 -0.0393874 9.99565e-12 0 -9.94686e-13 1.58725e-06 1.16622e-08
751 6 0.001 0.0025 0 -0.04066 -0.0849388 0 -3.8e-09 2.43524e-07 1.59293e-34
752 6 0.001 0.0025 0 -0.0400224 0.0889396 0 -0.00907084 4.6337e-07 3.33215e-09
753 6 0.001 0.00251716 0 -0.0393866 -3.05513e-11 0 1.38671e-12 6.59575e-07 6.58172e-09
901 7 0.001 0.0075 0 -0.04066 -0.0509792 0 -3.8e-09 8.77133e-08 1.59293e-34
902 7 0.001 0.0075 0 -0.0400224 0.054395 0 -0.00829255 1.63661e-07 2.81576e-09
903 7 0.001 0.0075103 0 -0.0393863 -8.03268e-13 0 -1.19337e-12 2.28325e-07 5.59444e-09
1051 8 0.001 0.0125 0 -0.04066 -0.0270595 0 -3.8e-09 2.47115e-08 1.59293e-34
1052 8 0.001 0.0125 0 -0.0400224 0.0301902 0 -0.00831579 4.39317e-08 2.85171e-09
1053 8 0.001 0.0125055 0 -0.0393862 5.84941e-12 0 5.57621e-12 5.82626e-08 5.68659e-09
1201 9 0.001 0.0175 0 -0.04066 -0.00525562 0 -3.8e-09 9.32177e-10 1.59293e-34
1202 9 0.001 0.0175 0 -0.0400224 0.00807515 0 -0.00763691 1.13129e-09 2.41793e-09
1203 9 0.001 0.0175011 0 -0.0393861 7.35828e-12 0 -1.51402e-12 1.13678e-09 4.83448e-09
1351 10 0.001 0.0225 0 -0.04066 0.010853 0 -3.8e-09 3.97511e-09 1.59293e-34
1352 10 0.001 0.0225 0 -0.0400224 -0.0081519 0 -0.00747136 1.01468e-08 2.32285e-09
1353 10 0.001 0.0224978 0 -0.0393861 1.46152e-11 0 -3.7399e-12 1.89612e-08 4.6528e-09
4 1 0.001 -0.0223736 0 -0.0387599 2.03275e-11 0 1.46034e-12 4.33267e-06 2.3337e-08
5 1 0.001 -0.0222482 0 -0.0381376 2.52979e-11 0 -7.12677e-13 4.21291e-06 2.28134e-08
154 2 0.001 -0.0173771 0 -0.0387597 3.21096e-11 0 2.972e-12 4.04754e-06 2.51242e-08
155 2 0.001 -0.0172555 0 -0.0381368 6.77033e-11 0 8.02444e-12 3.90627e-06 2.44836e-08
304 3 0.001 -0.012385 0 -0.0387595 -2.19855e-12 0 6.2244e-14 3.5281e-06 3.10304e-08
305 3 0.001 -0.0122712 0 -0.0381354 1.061e-11 0 -8.08232e-12 3.38941e-06 3.033e-08
454 4 0.001 -0.00740334 0 -0.0387588 -7.24675e-12 0 1.53173e-11 2.49877e-06 4.19191e-08
455 4 0.001 -0.00730755 0 -0.0381323 1.69362e-11 0 2.12364e-11 2.39725e-06 4.13208e-08
604 5 0.001 -0.00242223 0 -0.0387538 2.22724e-11 0 -1.54387e-11 1.45613e-06 1.12587e-08
605 5 0.001 -0.00234661 0 -0.0381227 3.22272e-11 0 -1.12818e-11 1.32045e-06 1.08487e-08
754 6 0.001 0.00255061 0 -0.0387513 -7.33543e-11 0 1.10151e-11 5.88932e-07 6.41819e-09
755 6 0.001 0.00259944 0 -0.0381171 -1.33881e-10 0 1.38744e-11 5.19228e-07 6.25886e-09
904 7 0.001 0.00753018 0 -0.0387504 -1.61678e-11 0 4.85181e-12 1.94592e-07 5.52224e-09
905 7 0.001 0.00755891 0 -0.0381148 -2.63878e-11 0 9.86311e-12 1.62656e-07 5.45432e-09
1054 8 0.001 0.0125158 0 -0.0387501 1.77909e-11 0 9.85792e-12 4.36459e-08 5.65498e-09
1055 8 0.001 0.0125302 0 -0.0381141 4.63885e-11 0 1.97829e-11 3.09821e-08 5.62767e-09
1204 9 0.001 0.0175026 0 -0.0387498 -9.29811e-12 0 7.25903e-14 5.57814e-10 4.83332e-09
1205 9 0.001 0.0175041 0 -0.0381135 -5.227e-12 0 -6.68513e-12 1.59758e-09 4.83539e-09
1354 10 0.001 0.0224929 0 -0.0387498 1.60258e-11 0 7.04887e-12 2.68642e-08 4.66828e-09
1355 10 0.001 0.0224847 0 -0.0381135 4.54373e-11 0 6.85112e-12 3.60263e-08 4.68626e-09
6 1 0.001 -0.0220827 0 -0.0375247 3.06167e-11 0 2.23389e-12 4.05153e-06 2.21172e-08
7 1 0.001 -0.0218785 0 -0.0369235 8.01138e-11 0 -1.28431e-11 3.85253e-06 2.12737e-08
8 1 0.001 -0.0216375 0 -0.0363361 7.48205e-11 0 -1.07386e-11 3.62073e-06 2.03118e-08
156 2 0.001 -0.0170952 0 -0.0375226 8.30028e-11 0 1.77107e-12 3.7261e-06 2.36785e-08
157 2 0.001 -0.0168977 0 -0.0369193 1.31123e-10 0 -1.87851e-13 3.51156e-06 2.27375e-08
158 2 0.001 -0.0166648 0 -0.0363287 1.26478e-10 0 -2.54445e-12 3.26795e-06 2.16922e-08
306 3 0.001 -0.0121213 0 -0.037519 8.69231e-12 0 -9.15273e-12 3.21365e-06 2.94539e-08
307 3 0.001 -0.0119367 0 -0.0369119 2.17541e-11 0 -1.40344e-11 3.00561e-06 2.84336e-08
456 4 0.001 -0.00718119 0 -0.0375111 -4.1785e-12 0 3.77391e-11 2.26505e-06 4.0548e-08
457 4 0.001 -0.0070254 0 -0.0368966 9.42978e-12 0 3.99912e-11 2.10617e-06 3.9629e-08
606 5 0.001 -0.00224814 0 -0.0374946 5.82902e-11 0 -2.48896e-11 1.1824e-06 1.04393e-08
607 5 0.001 -0.00212817 0 -0.0368703 7.27605e-11 0 -3.24062e-11 1.04412e-06 1.00372e-08
756 6 0.001 0.00266267 0 -0.0374841 -1.81525e-10 0 9.70055e-12 4.51276e-07 6.10546e-09
757 6 0.001 0.00273929 0 -0.0368525 -2.14155e-10 0 3.03082e-11 3.8585e-07 5.95956e-09
906 7 0.001 0.0075957 0 -0.0374796 -5.42294e-11 0 3.57032e-12 1.3285e-07 5.39131e-09
907 7 0.001 0.00763977 0 -0.0368449 -5.14756e-11 0 1.74732e-11 1.05485e-07 5.33378e-09
1056 8 0.001 0.0125482 0 -0.0374781 5.43432e-11 0 2.09912e-11 2.04041e-08 5.60491e-09
1057 8 0.001 0.0125689 0 -0.0368422 8.03405e-11 0 3.00794e-11 1.20224e-08 5.58691e-09
1206 9 0.001 0.0175049 0 -0.0374772 -2.49369e-11 0 -1.31327e-11 4.24604e-09 4.84067e-09
1207 9 0.001 0.0175045 0 -0.0368408 -2.70649e-11 0 -1.21794e-11 8.47753e-09 4.84912e-09
1356 10 0.001 0.0224727 0 -0.0374772 7.36522e-11 0 2.23083e-12 4.63598e-08 4.70657e-09
1357 10 0.001 0.0224564 0 -0.0368411 7.71785e-11 0 7.71404e-12 5.7766e-08 4.72905e-09
9 1 0.001 -0.0213615 0 -0.0357642 1.07413e-10 0 -1.89569e-11 3.36161e-06 1.9263e-08
10 1 0.001 -0.0210528 0 -0.0352091 1.23084e-10 0 -2.77866e-11 3.08113e-06 1.81591e-08
159 2 0.001 -0.0163985 0 -0.0357523 1.67391e-10 0 -1.1574e-11 3.00111e-06 2.05755e-08
160 2 0.001 -0.0161011 0 -0.0351912 1.82872e-10 0 -1.95316e-11 2.71724e-06 1.94199e-08
308 3 0.001 -0.0117191 0 -0.0363159 1.60804e-11 0 -1.53971e-11 2.77082e-06 2.73037e-08
309 3 0.001 -0.0114704 0 -0.035732 2.9576e-11 0 -2.32894e-11 2.51536e-06 2.61005e-08
310 3 0.001 -0.0111928 0 -0.0351613 1.44043e-11 0 -1.94826e-11 2.24569e-06 2.48597e-08
458 4 0.001 -0.00684158 0 -0.0362898 5.50453e-12 0 4.40293e-11 1.92533e-06 3.85958e-08
459 4 0.001 -0.00663131 0 -0.0356917 -8.82591e-12 0 6.26975e-11 1.72786e-06 3.74833e-08
460 4 0.001 -0.00639636 0 -0.0351028 2.59243e-11 0 5.5749e-11 1.51944e-06 3.63267e-08
608 5 0.001 -0.00198813 0 -0.0362502 8.22296e-11 0 -3.49223e-11 9.07706e-07 9.64818e-09
609 5 0.001 -0.00182952 0 -0.0356344 7.5075e-11 0 -4.4872e-11 7.75176e-07 9.27764e-09
610 5 0.001 -0.00165386 0 -0.0350233 7.52628e-11 0 -4.09566e-11 6.48433e-07 8.93008e-09
758 6 0.001 0.00282827 0 -0.0362226 -2.51931e-10 0 2.23837e-11 3.23685e-07 5.82257e-09
759 6 0.001 0.00292853 0 -0.0355943 -2.56367e-10 0 3.43692e-11 2.65468e-07 5.69572e-09
760 6 0.001 0.00303896 0 -0.0349678 -2.58862e-10 0 2.52246e-11 2.1183e-07 5.58009e-09
908 7 0.001 0.00769033 0 -0.0362106 -7.69238e-11 0 1.27722e-11 8.08427e-08 5.28224e-09
909 7 0.001 0.00774653 0 -0.0355769 -7.88994e-11 0 1.82929e-11 5.91748e-08 5.23713e-09
910 7 0.001 0.00780756 0 -0.0349435 -7.42605e-11 0 2.52314e-11 4.07019e-08 5.19882e-09
1058 8 0.001 0.0125918 0 -0.0362064 1.02203e-10 0 2.75581e-11 5.92437e-09 5.57382e-09
1059 8 0.001 0.0126161 0 -0.0355706 1.30341e-10 0 4.43326e-11 2.17342e-09 5.56578e-09
1060 8 0.001 0.0126412 0 -0.0349349 1.44408e-10 0 3.34258e-11 8.08543e-10 5.56285e-09
1208 9 0.001 0.0175023 0 -0.0362045 -5.37132e-11 0 -1.36775e-11 1.42511e-08 4.86066e-09
1209 9 0.001 0.0174977 0 -0.0355682 -7.54446e-11 0 -1.49439e-11 2.15106e-08 4.87519e-09
1210 9 0.001 0.0174903 0 -0.034932 -9.47991e-11 0 -2.10418e-11 3.01855e-08 4.89258e-09
1358 10 0.001 0.0224353 0 -0.0362051 1.03176e-10 0 1.12167e-11 7.01351e-08 4.75348e-09
1359 10 0.001 0.0224089 0 -0.0355694 1.12515e-10 0 7.03093e-12 8.3348e-08 4.77966e-09
1360 10 0.001 0.0223767 0 -0.0349339 1.01457e-10 0 1.11141e-11 9.72767e-08 4.80733e-09
11 1 0.001 -0.0207139 0 -0.034672 1.52725e-10 0 -3.93055e-11 2.78549e-06 1.70309e-08
12 1 0.001 -0.020347 0 -0.0341534 1.35316e-10 0 -3.89356e-11 2.48099e-06 1.59067e-08
13 1 0.001 -0.0199548 0 -0.0336536 1.71149e-10 0 -5.76008e-11 2.17385e-06 1.48117e-08
161 2 0.001 -0.0157748 0 -0.0346464 1.97136e-10 0 -1.93045e-11 2.42271e-06 1.82564e-08
162 2 0.001 -0.0154221 0 -0.0341181 2.01714e-10 0 -2.83984e-11 2.12388e-06 1.71125e-08
163 2 0.001 -0.0150455 0 -0.0336066 2.12958e-10 0 -1.92408e-11 1.82693e-06 1.60127e-08
311 3 0.001 -0.0108884 0 -0.0346043 2.58225e-11 0 -2.22162e-11 1.96841e-06 2.36156e-08
312 3 0.001 -0.0105597 0 -0.0340612 -1.16015e-11 0 -1.4619e-12 1.69008e-06 2.23988e-08
313 3 0.001 -0.0102089 0 -0.033532 6.90864e-12 0 -1.73939e-11 1.41707e-06 2.12367e-08
461 4 0.001 -0.00613865 0 -0.0345233 -9.88201e-12 0 6.39142e-11 1.30594e-06 3.51608e-08
462 4 0.001 -0.00586019 0 -0.0339536 2.11738e-11 0 6.64808e-11 1.09325e-06 3.40182e-08
463 4 0.001 -0.00556307 0 -0.0333932 3.45032e-11 0 5.78234e-11 8.87106e-07 3.29289e-08
611 5 0.001 -0.00146275 0 -0.0344169 4.87417e-11 0 -5.19751e-11 5.2925e-07 8.60931e-09
612 5 0.001 -0.0012578 0 -0.0338149 2.81987e-11 0 -4.37561e-11 4.19251e-07 8.31845e-09
761 6 0.001 0.00315844 0 -0.0343429 -2.38187e-10 0 3.60214e-11 1.63345e-07 5.47658e-09
762 6 0.001 0.00328585 0 -0.0337195 -2.11389e-10 0 2.65223e-11 1.20524e-07 5.38597e-09
911 7 0.001 0.00787257 0 -0.0343106 -5.85972e-11 0 2.30729e-11 2.56107e-08 5.16763e-09
912 7 0.001 0.00794069 0 -0.033678 -4.25363e-11 0 2.40334e-11 1.40528e-08 5.1438e-09
1061 8 0.001 0.0126663 0 -0.0342992 1.83204e-10 0 5.07381e-11 1.8439e-09 5.56507e-09
1062 8 0.001 0.0126908 0 -0.0336634 1.91011e-10 0 4.74177e-11 5.26874e-09 5.5724e-09
1212 9 0.001 0.0174644 0 -0.0336596 -1.50689e-10 0 -2.08175e-11 5.14302e-08 4.93531e-09
1211 9 0.001 0.0174793 0 -0.0342958 -1.26389e-10 0 -2.2069e-11 4.01913e-08 4.91268e-09
1361 10 0.001 0.0223383 0 -0.0342987 1.08765e-10 0 1.19593e-11 1.11786e-07 4.83623e-09
1362 10 0.001 0.0222931 0 -0.033664 7.31833e-11 0 9.18205e-12 1.26734e-07 4.8661e-09
14 1 0.001 -0.0195396 0 -0.0331725 1.64136e-10 0 -4.89355e-11 1.87006e-06 1.37671e-08
15 1 0.001 -0.0191041 0 -0.0327097 1.68885e-10 0 -6.11579e-11 1.57528e-06 1.279e-08
16 1 0.001 -0.0186506 0 -0.0322645 1.72981e-10 0 -6.25534e-11 1.29476e-06 1.18936e-08
17 1 0.001 -0.0181813 0 -0.0318357 1.84865e-10 0 -6.61146e-11 1.03323e-06 1.10872e-08
164 2 0.001 -0.0146473 0 -0.0331115 2.2173e-10 0 -2.20319e-11 1.53776e-06 1.49767e-08
165 2 0.001 -0.0142301 0 -0.0326323 2.2016e-10 0 -1.82436e-11 1.26187e-06 1.40206e-08
166 2 0.001 -0.0137961 0 -0.0321681 2.45185e-10 0 -3.19149e-11 1.00425e-06 1.31564e-08
314 3 0.001 -0.00983841 0 -0.0330163 -3.79081e-11 0 3.10317e-12 1.15539e-06 2.01519e-08
315 3 0.001 -0.00945069 0 -0.0325134 -2.36594e-11 0 -3.23969e-12 9.10631e-07 1.91629e-08
316 3 0.001 -0.00904801 0 -0.0320223 -5.49863e-11 0 1.44042e-11 6.87804e-07 1.82842e-08
464 4 0.001 -0.00524944 0 -0.0328419 2.74554e-11 0 5.93744e-11 6.92944e-07 3.1919e-08
465 4 0.001 -0.00492146 0 -0.0322989 6.33064e-11 0 4.5463e-11 5.15768e-07 3.10113e-08
613 5 0.001 -0.00104063 0 -0.0332172 4.03013e-12 0 -4.62279e-11 3.19897e-07 8.06005e-09
614 5 0.001 -0.000812887 0 -0.0326234 -3.00455e-11 0 -3.50387e-11 2.32478e-07 7.83605e-09
615 5 0.001 -0.000576209 0 -0.0320331 -4.24201e-11 0 -2.93651e-11 1.58104e-07 7.64797e-09
763 6 0.001 0.00342002 0 -0.0330976 -1.87486e-10 0 2.27811e-11 8.38127e-08 5.3089e-09
764 6 0.001 0.0035598 0 -0.0324769 -1.33832e-10 0 1.39794e-11 5.35887e-08 5.24585e-09
765 6 0.001 0.00370401 0 -0.0318571 -1.18315e-10 0 8.71318e-12 3.01599e-08 5.19724e-09
913 7 0.001 0.00801108 0 -0.0330456 -3.23456e-12 0 3.4865e-11 6.14399e-09 5.12753e-09
914 7 0.001 0.00808287 0 -0.0324134 4.27625e-11 0 2.3269e-11 1.96329e-09 5.11893e-09
1063 8 0.001 0.0127139 0 -0.0330276 2.2952e-10 0 5.56352e-11 1.10475e-08 5.58478e-09
1064 8 0.001 0.012735 0 -0.0323917 2.41617e-10 0 5.14856e-11 1.91201e-08 5.60211e-09
1214 9 0.001 0.0174204 0 -0.0323878 -1.92519e-10 0 -2.84117e-11 7.71545e-08 4.9873e-09
1213 9 0.001 0.0174449 0 -0.0330236 -1.88179e-10 0 -2.91693e-11 6.37918e-08 4.96026e-09
1363 10 0.001 0.0222409 0 -0.0330298 4.42024e-11 0 2.06515e-12 1.41974e-07 4.89665e-09
1364 10 0.001 0.0221811 0 -0.0323963 1.64418e-11 0 2.35388e-12 1.57356e-07 4.92759e-09
18 1 0.001 -0.0176986 0 -0.0314221 1.85467e-10 0 -7.39929e-11 7.94898e-07 1.0377e-08
19 1 0.001 -0.0172044 0 -0.0310222 1.80845e-10 0 -7.51785e-11 5.83439e-07 9.76651e-09
20 1 0.001 -0.0167008 0 -0.0306341 2.00222e-10 0 -9.35384e-11 4.01961e-07 9.25732e-09
167 2 0.001 -0.0133477 0 -0.0317178 2.46416e-10 0 -2.39194e-11 7.69401e-07 1.23924e-08
168 2 0.001 -0.012887 0 -0.0312799 2.8193e-10 0 -5.36835e-11 5.61215e-07 1.17343e-08
169 2 0.001 -0.0124161 0 -0.0308529 3.01018e-10 0 -6.80541e-11 3.8303e-07 1.11853e-08
170 2 0.001 -0.011937 0 -0.0304351 3.2929e-10 0 -9.10185e-11 2.37595e-07 1.07469e-08
317 3 0.001 -0.00863267 0 -0.0315418 -3.12534e-11 0 -5.39528e-12 4.91336e-07 1.75266e-08
318 3 0.001 -0.00820687 0 -0.0310704 -4.46199e-11 0 -1.32209e-11 3.25008e-07 1.68977e-08
319 3 0.001 -0.00777278 0 -0.0306066 -2.2729e-11 0 -3.64091e-11 1.9193e-07 1.64028e-08
466 4 0.001 -0.00458132 0 -0.0317634 7.0314e-11 0 4.36953e-11 3.60047e-07 3.02243e-08
467 4 0.001 -0.0042312 0 -0.0312343 9.37665e-11 0 2.43624e-11 2.29635e-07 2.95731e-08
468 4 0.001 -0.00387327 0 -0.0307104 1.05461e-10 0 1.38913e-11 1.27706e-07 2.9069e-08
616 5 0.001 -0.000332243 0 -0.0314458 -7.49511e-11 0 -2.05642e-11 9.77025e-08 7.4969e-09
617 5 0.001 -8.26375e-05 0 -0.0308608 -7.54686e-11 0 -2.18544e-11 5.20139e-08 7.38362e-09
618 5 0.001 0.000170966 0 -0.0302775 -9.26737e-11 0 -2.15648e-11 2.15915e-08 7.30868e-09
766 6 0.001 0.00385148 0 -0.0312382 -8.2169e-11 0 9.35592e-13 1.37633e-08 5.16336e-09
767 6 0.001 0.00400104 0 -0.0306197 -8.59524e-11 0 1.24502e-11 4.56382e-09 5.14439e-09
915 7 0.001 0.00815518 0 -0.0317812 9.05838e-11 0 2.38941e-11 1.55235e-09 5.11809e-09
916 7 0.001 0.00822715 0 -0.031149 1.59512e-10 0 2.79503e-11 4.91527e-09 5.12499e-09
917 7 0.001 0.00829792 0 -0.0305167 2.26541e-10 0 2.38361e-11 1.20185e-08 5.13959e-09
1065 8 0.001 0.0127534 0 -0.0317558 2.73413e-10 0 5.65484e-11 2.94024e-08 5.62422e-09
1066 8 0.001 0.0127684 0 -0.0311198 2.96257e-10 0 5.71689e-11 4.17869e-08 5.65091e-09
1067 8 0.001 0.0127793 0 -0.0304836 3.16136e-10 0 6.15952e-11 5.6144e-08 5.68193e-09
1215 9 0.001 0.0173903 0 -0.0317522 -2.33274e-10 0 -3.29403e-11 9.13864e-08 5.01618e-09
1216 9 0.001 0.0173542 0 -0.0311169 -2.38715e-10 0 -3.57999e-11 1.06346e-07 5.04663e-09
1217 9 0.001 0.0173115 0 -0.0304821 -2.42707e-10 0 -3.74161e-11 1.21885e-07 5.07836e-09
1367 10 0.001 0.0219527 0 -0.0305013 -1.50702e-10 0 -2.48575e-11 2.02832e-07 5.0196e-09
1365 10 0.001 0.0221134 0 -0.0317637 -5.73928e-11 0 -9.21106e-12 1.72728e-07 4.9586e-09
1366 10 0.001 0.0220374 0 -0.0311319 -9.07266e-11 0 -1.78463e-11 1.87938e-07 4.98937e-09
21 1 0.001 -0.0161895 0 -0.030256 2.09496e-10 0 -1.0353e-10 2.53028e-07 8.84962e-09
22 1 0.001 -0.0156724 0 -0.0298859 2.11465e-10 0 -1.22911e-10 1.38674e-07 8.5428e-09
23 1 0.001 -0.0151512 0 -0.0295216 2.24728e-10 0 -1.45898e-10 6.04147e-08 8.33594e-09
24 1 0.001 -0.0146275 0 -0.0291609 2.33941e-10 0 -1.68909e-10 1.92654e-08 8.22818e-09
25 1 0.001 -0.0141028 0 -0.0288015 2.46218e-10 0 -1.68433e-10 1.57528e-08 8.21901e-09
171 2 0.001 -0.0114518 0 -0.0300244 3.50791e-10 0 -1.14838e-10 1.27084e-07 1.04197e-08
172 2 0.001 -0.0109621 0 -0.029619 3.91963e-10 0 -1.39514e-10 5.31101e-08 1.02034e-08
173 2 0.001 -0.0104699 0 -0.0292166 4.01187e-10 0 -1.50078e-10 1.67304e-08 1.00979e-08
174 2 0.001 -0.00997683 0 -0.0288153 4.50293e-10 0 -1.82802e-10 1.84598e-08 1.01029e-08
320 3 0.001 -0.00733249 0 -0.0301487 -2.84341e-12 0 -7.15839e-11 9.45333e-08 1.60452e-08
321 3 0.001 -0.00688807 0 -0.0296947 2.15535e-11 0 -1.1167e-10 3.45649e-08 1.58271e-08
322 3 0.001 -0.00644154 0 -0.0292428 4.30555e-11 0 -1.33997e-10 1.30858e-08 1.57493e-08
323 3 0.001 -0.00599491 0 -0.028791 8.33492e-11 0 -2.0228e-10 3.04736e-08 1.58122e-08
469 4 0.001 -0.00350969 0 -0.0301904 1.22554e-10 0 -4.18308e-13 5.67055e-08 2.87204e-08
470 4 0.001 -0.00314259 0 -0.0296729 1.24831e-10 0 -9.35528e-12 1.83181e-08 2.85328e-08
471 4 0.001 -0.00277411 0 -0.0291564 1.29893e-10 0 -1.34172e-11 1.34492e-08 2.8509e-08
619 5 0.001 0.000426924 0 -0.0296952 -7.19959e-11 0 -3.44268e-11 6.8002e-09 7.27237e-09
620 5 0.001 0.000683596 0 -0.0291133 -5.99429e-11 0 -4.41761e-11 7.81652e-09 7.27486e-09
768 6 0.001 0.00415149 0 -0.0300015 -8.53037e-11 0 9.75566e-12 2.65342e-09 5.14045e-09
769 6 0.001 0.00430167 0 -0.0293832 -1.18629e-10 0 2.68937e-11 8.05127e-09 5.15156e-09
770 6 0.001 0.00445038 0 -0.0287646 -1.37742e-10 0 4.17411e-11 2.07034e-08 5.17766e-09
918 7 0.001 0.00836661 0 -0.0298841 2.88172e-10 0 2.18422e-11 2.27912e-08 5.16178e-09
919 7 0.001 0.00843237 0 -0.0292513 3.7068e-10 0 2.25515e-11 3.71256e-08 5.19138e-09
1068 8 0.001 0.0127854 0 -0.0298475 3.46375e-10 0 5.97768e-11 7.23225e-08 5.71699e-09
1069 8 0.001 0.0127862 0 -0.0292113 3.68543e-10 0 6.20407e-11 9.01515e-08 5.75575e-09
1218 9 0.001 0.0172618 0 -0.0298477 -2.4871e-10 0 -3.82859e-11 1.37847e-07 5.11105e-09
1219 9 0.001 0.0172047 0 -0.029214 -2.24758e-10 0 -4.17222e-11 1.54072e-07 5.14439e-09
1368 10 0.001 0.0218591 0 -0.0298719 -1.95444e-10 0 -4.11178e-11 2.17262e-07 5.04898e-09
1369 10 0.001 0.0217562 0 -0.029244 -2.3172e-10 0 -4.28225e-11 2.31083e-07 5.0772e-09
26 1 0.001 -0.0135788 0 -0.0284413 2.44394e-10 0 -1.79378e-10 4.99218e-08 8.30838e-09
27 1 0.001 -0.013057 0 -0.0280778 2.42681e-10 0 -1.84269e-10 1.21336e-07 8.49673e-09
28 1 0.001 -0.012539 0 -0.0277089 2.23768e-10 0 -1.57697e-10 2.29071e-07 8.78486e-09
29 1 0.001 -0.0120266 0 -0.0273325 2.08721e-10 0 -1.39199e-10 3.71705e-07 9.17371e-09
175 2 0.001 -0.00948476 0 -0.0284127 4.59229e-10 0 -1.91072e-10 5.82739e-08 1.02184e-08
176 2 0.001 -0.00899542 0 -0.0280069 4.92717e-10 0 -2.06972e-10 1.35609e-07 1.04447e-08
177 2 0.001 -0.00851063 0 -0.0275956 5.22604e-10 0 -2.2574e-10 2.49358e-07 1.0782e-08
324 3 0.001 -0.00555017 0 -0.0283374 8.34522e-11 0 -2.03361e-10 8.64227e-08 1.60156e-08
325 3 0.001 -0.00510935 0 -0.02788 1.16718e-10 0 -2.56178e-10 1.79944e-07 1.63585e-08
326 3 0.001 -0.00467451 0 -0.0274169 9.70986e-11 0 -2.44329e-10 3.09363e-07 1.68391e-08
472 4 0.001 -0.0024064 0 -0.0286393 1.28031e-10 0 -3.00985e-11 4.22136e-08 2.86494e-08
473 4 0.001 -0.00204158 0 -0.0281202 1.20406e-10 0 -2.53143e-11 1.03934e-07 2.8952e-08
474 4 0.001 -0.00168179 0 -0.0275976 1.21998e-10 0 -4.17911e-11 1.97148e-07 2.94118e-08
621 5 0.001 0.000939344 0 -0.028531 -1.82812e-11 0 -6.5204e-11 2.46283e-08 7.31612e-09
622 5 0.001 0.00119253 0 -0.0279475 -6.1004e-12 0 -7.58833e-11 5.7035e-08 7.396e-09
623 5 0.001 0.0014415 0 -0.0273622 3.79665e-11 0 -1.00729e-10 1.04647e-07 7.51415e-09
771 6 0.001 0.00459644 0 -0.0281453 -2.154e-10 0 5.62226e-11 4.04828e-08 5.2186e-09
772 6 0.001 0.00473868 0 -0.0275251 -2.51385e-10 0 7.02167e-11 6.71904e-08 5.27414e-09
920 7 0.001 0.00849433 0 -0.028618 4.0623e-10 0 1.49523e-11 5.48776e-08 5.22815e-09
921 7 0.001 0.00855166 0 -0.0279844 4.73565e-10 0 2.26338e-11 7.58681e-08 5.2718e-09
922 7 0.001 0.00860351 0 -0.0273502 4.77435e-10 0 2.95226e-11 9.98841e-08 5.32197e-09
1070 8 0.001 0.012781 0 -0.0285751 3.81474e-10 0 5.439e-11 1.09442e-07 5.79783e-09
1071 8 0.001 0.0127691 0 -0.027939 4.0568e-10 0 6.05953e-11 1.29987e-07 5.84283e-09
1072 8 0.001 0.0127501 0 -0.0273031 4.15319e-10 0 6.39774e-11 1.51568e-07 5.89027e-09
1220 9 0.001 0.0171398 0 -0.0285811 -2.27112e-10 0 -3.65217e-11 1.70395e-07 5.17804e-09
1221 9 0.001 0.0170666 0 -0.027949 -1.92015e-10 0 -3.69613e-11 1.86652e-07 5.21166e-09
1222 9 0.001 0.0169848 0 -0.027318 -1.78691e-10 0 -4.08377e-11 2.02677e-07 5.24491e-09
1370 10 0.001 0.0216438 0 -0.0286177 -2.79516e-10 0 -5.81634e-11 2.44154e-07 5.10395e-09
1371 10 0.001 0.0215217 0 -0.0279933 -2.81687e-10 0 -6.02638e-11 2.56343e-07 5.12897e-09
1372 10 0.001 0.0213896 0 -0.0273709 -2.97329e-10 0 -6.65936e-11 2.67526e-07 5.15197e-09
30 1 0.001 -0.0115214 0 -0.0269464 1.97506e-10 0 -1.26815e-10 5.47303e-07 9.66398e-09
31 1 0.001 -0.0110253 0 -0.0265488 1.56022e-10 0 -8.19644e-11 7.534e-07 1.02557e-08
32 1 0.001 -0.0105402 0 -0.0261379 1.28723e-10 0 -5.84086e-11 9.86988e-07 1.09475e-08
178 2 0.001 -0.00803225 0 -0.027177 5.31636e-10 0 -2.23199e-10 3.97857e-07 1.12304e-08
179 2 0.001 -0.00756222 0 -0.0267491 5.5161e-10 0 -2.33999e-10 5.78882e-07 1.17894e-08
180 2 0.001 -0.00710254 0 -0.0263102 5.69889e-10 0 -2.47128e-10 7.89628e-07 1.24573e-08
181 2 0.001 -0.00665533 0 -0.0258587 5.46249e-10 0 -2.15735e-10 1.02671e-06 1.32305e-08
327 3 0.001 -0.00424774 0 -0.0269464 1.06383e-10 0 -2.73684e-10 4.72321e-07 1.7454e-08
328 3 0.001 -0.00383119 0 -0.0264669 7.35141e-11 0 -2.48576e-10 6.65779e-07 1.81984e-08
329 3 0.001 -0.00342707 0 -0.025977 4.59842e-11 0 -2.43699e-10 8.86025e-07 1.90647e-08
475 4 0.001 -0.00132919 0 -0.0270701 9.1499e-11 0 -2.18798e-11 3.19627e-07 3.00216e-08
476 4 0.001 -0.00098595 0 -0.0265366 1.06132e-10 0 -4.35254e-11 4.68404e-07 3.07708e-08
477 4 0.001 -0.000654237 0 -0.0259959 6.56856e-11 0 -2.74535e-11 6.39817e-07 3.16453e-08
624 5 0.001 0.00168462 0 -0.0267745 3.77554e-11 0 -1.07213e-10 1.66888e-07 7.67001e-09
625 5 0.001 0.00192025 0 -0.0261838 4.50689e-11 0 -1.15906e-10 2.42993e-07 7.86276e-09
773 6 0.001 0.00487593 0 -0.0269038 -3.14609e-10 0 9.50361e-11 1.00555e-07 5.34393e-09
774 6 0.001 0.00500701 0 -0.0262812 -3.64302e-10 0 1.06144e-10 1.40235e-07 5.42753e-09
923 7 0.001 0.00864907 0 -0.0267156 5.0838e-10 0 2.35139e-11 1.2668e-07 5.37823e-09
924 7 0.001 0.00868751 0 -0.0260805 4.82635e-10 0 2.86117e-11 1.55981e-07 5.44008e-09
1073 8 0.001 0.0127232 0 -0.0266675 4.17282e-10 0 5.45789e-11 1.73951e-07 5.93969e-09
1074 8 0.001 0.0126879 0 -0.0260323 4.27755e-10 0 5.09552e-11 1.96892e-07 5.99055e-09
1223 9 0.001 0.0168941 0 -0.0266883 -1.53882e-10 0 -2.59732e-11 2.18304e-07 5.27743e-09
1224 9 0.001 0.0167941 0 -0.0260599 -1.31436e-10 0 -3.29951e-11 2.33374e-07 5.3089e-09
1373 10 0.001 0.0212473 0 -0.0267507 -2.86971e-10 0 -7.42761e-11 2.77587e-07 5.17271e-09
1374 10 0.001 0.0210948 0 -0.026133 -2.66907e-10 0 -6.35439e-11 2.86425e-07 5.19097e-09
33 1 0.001 -0.0100683 0 -0.0257121 1.12886e-10 0 -3.99108e-11 1.2445e-06 1.17364e-08
34 1 0.001 -0.00961168 0 -0.02527 6.49773e-11 0 -4.14181e-12 1.52184e-06 1.26166e-08
35 1 0.001 -0.00917263 0 -0.0248105 4.58343e-11 0 1.54766e-11 1.81434e-06 1.35795e-08
36 1 0.001 -0.00875354 0 -0.0243329 2.57534e-11 0 2.2215e-11 2.11687e-06 1.46127e-08
182 2 0.001 -0.00622277 0 -0.0253932 5.7324e-10 0 -2.33077e-10 1.28617e-06 1.41035e-08
183 2 0.001 -0.00580715 0 -0.0249126 5.37151e-10 0 -2.01189e-10 1.56349e-06 1.50673e-08
184 2 0.001 -0.00541084 0 -0.024416 5.38006e-10 0 -1.96074e-10 1.85359e-06 1.61098e-08
330 3 0.001 -0.00303766 0 -0.0254754 1.24183e-11 0 -2.28148e-10 1.1287e-06 2.00427e-08
331 3 0.001 -0.00266528 0 -0.024961 -2.74428e-11 0 -1.99483e-10 1.38884e-06 2.11182e-08
332 3 0.001 -0.0023123 0 -0.0244333 -6.82371e-11 0 -2.00937e-10 1.66094e-06 2.22732e-08
478 4 0.001 -0.000336238 0 -0.025447 6.64064e-11 0 -4.82247e-11 8.29565e-07 3.26278e-08
479 4 0.001 -3.41272e-05 0 -0.0248893 4.8475e-11 0 -4.60299e-11 1.03279e-06 3.36967e-08
480 4 0.001 0.000249941 0 -0.0243223 4.58514e-11 0 -4.68184e-11 1.24417e-06 3.48268e-08
626 5 0.001 0.00214673 0 -0.0255896 3.78461e-11 0 -1.12162e-10 3.3201e-07 8.09126e-09
627 5 0.001 0.00236242 0 -0.0249913 -1.07095e-11 0 -9.85883e-11 4.32806e-07 8.35394e-09
628 5 0.001 0.00256568 0 -0.0243888 -4.56162e-11 0 -8.28897e-11 5.4407e-07 8.64877e-09
775 6 0.001 0.00513078 0 -0.0256572 -3.82315e-10 0 1.26274e-10 1.85821e-07 5.52437e-09
776 6 0.001 0.00524608 0 -0.0250315 -4.09202e-10 0 1.35742e-10 2.36834e-07 5.63376e-09
777 6 0.001 0.00535179 0 -0.0244041 -3.98005e-10 0 1.39314e-10 2.92734e-07 5.75486e-09
925 7 0.001 0.00871805 0 -0.025445 4.71302e-10 0 3.72091e-11 1.87481e-07 5.50697e-09
926 7 0.001 0.00873992 0 -0.0248092 4.12154e-10 0 4.63274e-11 2.20853e-07 5.57829e-09
1075 8 0.001 0.0126438 0 -0.0253976 4.1496e-10 0 5.69393e-11 2.20143e-07 6.04232e-09
1076 8 0.001 0.0125903 0 -0.0247637 4.1588e-10 0 4.48349e-11 2.43446e-07 6.09443e-09
1225 9 0.001 0.0166845 0 -0.0254332 -1.11995e-10 0 -2.53425e-11 2.4773e-07 5.33895e-09
1226 9 0.001 0.016565 0 -0.0248083 -8.19668e-11 0 -2.19377e-11 2.61224e-07 5.36728e-09
1375 10 0.001 0.0209318 0 -0.0255179 -2.39242e-10 0 -6.99308e-11 2.93948e-07 5.20653e-09
1377 10 0.001 0.0205742 0 -0.0242967 -1.60532e-10 0 -5.20014e-11 3.04753e-07 5.22892e-09
1376 10 0.001 0.0207583 0 -0.0249058 -1.78651e-10 0 -5.89933e-11 3.00079e-07 5.21922e-09
37 1 0.001 -0.00835685 0 -0.0238366 -2.90769e-11 0 5.97502e-11 2.42383e-06 1.56998e-08
38 1 0.001 -0.00798508 0 -0.0233215 -1.31779e-11 0 4.43667e-11 2.72929e-06 1.68203e-08
39 1 0.001 -0.00764072 0 -0.0227878 -4.94275e-11 0 6.01473e-11 3.02706e-06 1.79499e-08
185 2 0.001 -0.00503626 0 -0.023903 5.03843e-10 0 -1.76177e-10 2.15096e-06 1.72145e-08
186 2 0.001 -0.00468587 0 -0.0233732 4.7886e-10 0 -1.46113e-10 2.44966e-06 1.83611e-08
187 2 0.001 -0.00436211 0 -0.0228269 4.37447e-10 0 -1.35422e-10 2.74349e-06 1.95252e-08
333 3 0.001 -0.0019811 0 -0.0238917 -9.97964e-11 0 -1.70632e-10 1.939e-06 2.34853e-08
334 3 0.001 -0.00167405 0 -0.0233362 -1.24082e-10 0 -1.7113e-10 2.2167e-06 2.4728e-08
335 3 0.001 -0.00139348 0 -0.0227669 -1.26368e-10 0 -1.69886e-10 2.48749e-06 2.59706e-08
481 4 0.001 0.000513857 0 -0.0237456 3.33111e-11 0 -6.50841e-11 1.45804e-06 3.59892e-08
482 4 0.001 0.000755579 0 -0.0231594 2.15591e-11 0 -7.27241e-11 1.66853e-06 3.71519e-08
629 5 0.001 0.0027549 0 -0.0237817 -8.50356e-11 0 -7.29231e-11 6.64318e-07 8.97316e-09
630 5 0.001 0.00292845 0 -0.02317 -1.28377e-10 0 -5.99961e-11 7.91907e-07 9.32389e-09
778 6 0.001 0.0054468 0 -0.0237751 -3.57993e-10 0 1.42693e-10 3.52919e-07 5.88668e-09
779 6 0.001 0.00553001 0 -0.0231443 -3.08169e-10 0 1.42251e-10 4.1673e-07 6.02808e-09
927 7 0.001 0.00875237 0 -0.0241731 3.78348e-10 0 4.34437e-11 2.55743e-07 5.65333e-09
928 7 0.001 0.00875467 0 -0.0235369 3.08032e-10 0 4.91372e-11 2.91779e-07 5.73138e-09
929 7 0.001 0.00874613 0 -0.0229007 2.73116e-10 0 5.94873e-11 3.28574e-07 5.81161e-09
1077 8 0.001 0.0125269 0 -0.0241307 3.97644e-10 0 4.7848e-11 2.66544e-07 6.1463e-09
1078 8 0.001 0.0124532 0 -0.0234989 3.91821e-10 0 3.84802e-11 2.8918e-07 6.19735e-09
1079 8 0.001 0.0123688 0 -0.0228684 3.82629e-10 0 3.61402e-11 3.11101e-07 6.24699e-09
1227 9 0.001 0.0164355 0 -0.0241853 -6.15139e-11 0 -1.88459e-11 2.73714e-07 5.39357e-09
1228 9 0.001 0.0162957 0 -0.0235646 -4.55308e-11 0 -1.19235e-11 2.8507e-07 5.41753e-09
1229 9 0.001 0.0161455 0 -0.0229464 -2.36752e-11 0 -9.23442e-12 2.95174e-07 5.43889e-09
1378 10 0.001 0.0203796 0 -0.023691 -8.60232e-11 0 -4.04457e-11 3.07924e-07 5.23549e-09
1379 10 0.001 0.0201743 0 -0.0230887 -6.58494e-11 0 -3.96044e-11 3.09557e-07 5.23888e-09
40 1 0.001 -0.00732624 0 -0.022236 -4.63405e-11 0 5.44427e-11 3.31084e-06 1.90605e-08
41 1 0.001 -0.00704401 0 -0.0216671 -5.12049e-11 0 4.85486e-11 3.57439e-06 2.0122e-08
188 2 0.001 -0.00406741 0 -0.0222644 4.19384e-10 0 -1.08402e-10 3.02608e-06 2.06785e-08
189 2 0.001 -0.00380408 0 -0.0216866 3.63606e-10 0 -8.56779e-11 3.29107e-06 2.17901e-08
336 3 0.001 -0.00114165 0 -0.0221844 -1.44699e-10 0 -1.62649e-10 2.74475e-06 2.71794e-08
337 3 0.001 -0.000920675 0 -0.0215895 -1.13621e-10 0 -1.81731e-10 2.98202e-06 2.83188e-08
483 4 0.001 0.000973163 0 -0.0225639 6.27967e-13 0 -7.0513e-11 1.86977e-06 3.82808e-08
484 4 0.001 0.0011648 0 -0.0219595 -4.0565e-12 0 -8.83129e-11 2.05597e-06 3.93405e-08
485 4 0.001 0.00132883 0 -0.0213472 -4.32677e-11 0 -8.76371e-11 2.22186e-06 4.02983e-08
631 5 0.001 0.00308477 0 -0.0225537 -1.67885e-10 0 -4.70057e-11 9.25046e-07 9.69705e-09
632 5 0.001 0.00322232 0 -0.021933 -1.91172e-10 0 -5.12136e-11 1.0617e-06 1.00864e-08
633 5 0.001 0.0033396 0 -0.0213082 -2.2924e-10 0 -3.57306e-11 1.19951e-06 1.04816e-08
780 6 0.001 0.00560037 0 -0.0225121 -2.47268e-10 0 1.41977e-10 4.83457e-07 6.17774e-09
781 6 0.001 0.00565684 0 -0.0218785 -1.74356e-10 0 1.46969e-10 5.52345e-07 6.33417e-09
782 6 0.001 0.00569845 0 -0.0212437 -1.01481e-10 0 1.42002e-10 6.22601e-07 6.49572e-09
930 7 0.001 0.00872608 0 -0.0222648 2.03673e-10 0 5.12457e-11 3.65727e-07 5.8932e-09
931 7 0.001 0.0086939 0 -0.0216295 1.90398e-10 0 5.96048e-11 4.0283e-07 5.97524e-09
1080 8 0.001 0.0122732 0 -0.0222394 3.47143e-10 0 3.29174e-11 3.3206e-07 6.29463e-09
1081 8 0.001 0.0121663 0 -0.0216123 3.46843e-10 0 2.57003e-11 3.51819e-07 6.33971e-09
1231 9 0.001 0.0158131 0 -0.0217181 -1.51735e-11 0 -9.91125e-12 3.11209e-07 5.47287e-09
1230 9 0.001 0.0159847 0 -0.0223308 -1.89638e-11 0 -5.58849e-12 3.03917e-07 5.45741e-09
1380 10 0.001 0.0199585 0 -0.0224901 -1.91078e-11 0 -2.62125e-11 3.09636e-07 5.23904e-09
1382 10 0.001 0.0194956 0 -0.0213049 -2.89797e-12 0 -3.14532e-11 3.05146e-07 5.22971e-09
1381 10 0.001 0.0197323 0 -0.0218955 -1.34583e-11 0 -3.30768e-11 3.08161e-07 5.23597e-09
42 1 0.001 -0.00679629 0 -0.0210825 -3.06814e-11 0 4.66417e-11 3.81171e-06 2.11024e-08
43 1 0.001 -0.00658513 0 -0.0204837 -3.63835e-11 0 2.93969e-11 4.01721e-06 2.19703e-08