ITEM: TIMESTEP
4700000
ITEM: NUMBER OF ATOMS
1500
ITEM: BOX BOUNDS ff ff ff
-2.5000000000000001e-02 2.5000000000000001e-02
-5.0000000000000001e-03 5.0000000000000001e-03
-5.0000000000000003e-02 5.0000000000000003e-02
ITEM: ATOMS id type radius x y z fx fy fz c_bendingE c_stretchingE
1 1 0.001 -0.0225 0 -0.0475 2.7719e-25 0 6.6676e-13 0 1.84504e-29
151 2 0.001 -0.0175 0 -0.0475 2.7719e-25 0 6.6676e-13 0 1.84504e-29
301 3 0.001 -0.0125 0 -0.0475 -2.7719e-25 0 6.6676e-13 0 1.84504e-29
451 4 0.001 -0.00750005 0 -0.0475 -2.7719e-25 0 6.6676e-13 0 1.84504e-29
601 5 0.001 -0.00250005 0 -0.0475 -2.7719e-25 0 6.6676e-13 0 1.84504e-29
751 6 0.001 0.00250005 0 -0.0475 2.7719e-25 0 6.6676e-13 0 1.84504e-29
901 7 0.001 0.00749995 0 -0.0475 -2.7719e-25 0 6.6676e-13 0 1.84504e-29
1051 8 0.001 0.0125 0 -0.0475 2.7719e-25 0 6.6676e-13 0 1.84504e-29
1201 9 0.001 0.0175 0 -0.0475 -2.7719e-25 0 6.6676e-13 0 1.84504e-29
1351 10 0.001 0.0225 0 -0.0475 -2.7719e-25 0 6.6676e-13 0 1.84504e-29
2 1 0.001 -0.0225 0 -0.0468624 2.7719e-25 0 -4.22157e-12 0 5.42812e-28
3 1 0.001 -0.0225 0 -0.0462248 2.7719e-25 0 6.18614e-12 0 8.11671e-28
4 1 0.001 -0.0225 0 -0.0455872 2.7719e-25 0 -2.84223e-12 0 2.89155e-28
152 2 0.001 -0.0175 0 -0.0468624 2.7719e-25 0 -4.22157e-12 0 5.42812e-28
153 2 0.001 -0.0175 0 -0.0462248 2.7719e-25 0 6.18614e-12 0 8.11671e-28
154 2 0.001 -0.0175 0 -0.0455872 2.7719e-25 0 -2.84223e-12 0 2.89155e-28
302 3 0.001 -0.0125 0 -0.0468624 -2.7719e-25 0 -4.22157e-12 0 5.42812e-28
303 3 0.001 -0.0125 0 -0.0462248 -2.7719e-25 0 6.18614e-12 0 8.11671e-28
304 3 0.001 -0.0125 0 -0.0455872 -2.7719e-25 0 -2.84223e-12 0 2.89155e-28
452 4 0.001 -0.00750005 0 -0.0468624 -2.7719e-25 0 -4.22157e-12 0 5.42812e-28
453 4 0.001 -0.00750005 0 -0.0462248 -2.7719e-25 0 6.18614e-12 0 8.11671e-28
454 4 0.001 -0.00750005 0 -0.0455872 -2.7719e-25 0 -2.84223e-12 0 2.89155e-28
602 5 0.001 -0.00250005 0 -0.0468624 -2.7719e-25 0 -4.22157e-12 0 5.42812e-28
603 5 0.001 -0.00250005 0 -0.0462248 -2.7719e-25 0 6.18614e-12 0 8.11671e-28
604 5 0.001 -0.00250005 0 -0.0455872 -2.7719e-25 0 -2.84223e-12 0 2.89155e-28
752 6 0.001 0.00250005 0 -0.0468624 2.7719e-25 0 -4.22157e-12 0 5.42812e-28
753 6 0.001 0.00250005 0 -0.0462248 2.7719e-25 0 6.18614e-12 0 8.11671e-28
754 6 0.001 0.00250005 0 -0.0455872 2.7719e-25 0 -2.84223e-12 0 2.89155e-28
902 7 0.001 0.00749995 0 -0.0468624 -2.7719e-25 0 -4.22157e-12 0 5.42812e-28
903 7 0.001 0.00749995 0 -0.0462248 -2.7719e-25 0 6.18614e-12 0 8.11671e-28
904 7 0.001 0.00749995 0 -0.0455872 -2.7719e-25 0 -2.84223e-12 0 2.89155e-28
1052 8 0.001 0.0125 0 -0.0468624 2.7719e-25 0 -4.22157e-12 0 5.42812e-28
1053 8 0.001 0.0125 0 -0.0462248 2.7719e-25 0 6.18614e-12 0 8.11671e-28
1054 8 0.001 0.0125 0 -0.0455872 2.7719e-25 0 -2.84223e-12 0 2.89155e-28
1202 9 0.001 0.0175 0 -0.0468624 -2.7719e-25 0 -4.22157e-12 0 5.42812e-28
1203 9 0.001 0.0175 0 -0.0462248 -2.7719e-25 0 6.18614e-12 0 8.11671e-28
1204 9 0.001 0.0175 0 -0.0455872 -2.7719e-25 0 -2.84223e-12 0 2.89155e-28
1352 10 0.001 0.0225 0 -0.0468624 -2.7719e-25 0 -4.22157e-12 0 5.42812e-28
1353 10 0.001 0.0225 0 -0.0462248 -2.7719e-25 0 6.18614e-12 0 8.11671e-28
1354 10 0.001 0.0225 0 -0.0455872 -2.7719e-25 0 -2.84223e-12 0 2.89155e-28
5 1 0.001 -0.0225 0 -0.0449497 2.7719e-25 0 -5.84772e-13 0 2.81469e-29
6 1 0.001 -0.0225 0 -0.0443121 2.7719e-25 0 -1.83905e-12 0 3.14466e-28
155 2 0.001 -0.0175 0 -0.0449497 2.7719e-25 0 -5.84772e-13 0 2.81469e-29
156 2 0.001 -0.0175 0 -0.0443121 2.7719e-25 0 -1.83905e-12 0 3.14466e-28
305 3 0.001 -0.0125 0 -0.0449497 -2.7719e-25 0 -5.84772e-13 0 2.81469e-29
306 3 0.001 -0.0125 0 -0.0443121 -2.7719e-25 0 -1.83905e-12 0 3.14466e-28
455 4 0.001 -0.00750005 0 -0.0449497 -2.7719e-25 0 -5.84772e-13 0 2.81469e-29
456 4 0.001 -0.00750005 0 -0.0443121 -2.7719e-25 0 -1.83905e-12 0 3.14466e-28
605 5 0.001 -0.00250005 0 -0.0449497 -2.7719e-25 0 -5.84772e-13 0 2.81469e-29
606 5 0.001 -0.00250005 0 -0.0443121 -2.7719e-25 0 -1.83905e-12 0 3.14466e-28
755 6 0.001 0.00250005 0 -0.0449497 2.7719e-25 0 -5.84772e-13 0 2.81469e-29
756 6 0.001 0.00250005 0 -0.0443121 2.7719e-25 0 -1.83905e-12 0 3.14466e-28
905 7 0.001 0.00749995 0 -0.0449497 -2.7719e-25 0 -5.84772e-13 0 2.81469e-29
906 7 0.001 0.00749995 0 -0.0443121 -2.7719e-25 0 -1.83905e-12 0 3.14466e-28
1055 8 0.001 0.0125 0 -0.0449497 2.7719e-25 0 -5.84772e-13 0 2.81469e-29
1056 8 0.001 0.0125 0 -0.0443121 2.7719e-25 0 -1.83905e-12 0 3.14466e-28
1205 9 0.001 0.0175 0 -0.0449497 -2.7719e-25 0 -5.84772e-13 0 2.81469e-29
1206 9 0.001 0.0175 0 -0.0443121 -2.7719e-25 0 -1.83905e-12 0 3.14466e-28
1355 10 0.001 0.0225 0 -0.0449497 -2.7719e-25 0 -5.84772e-13 0 2.81469e-29
1356 10 0.001 0.0225 0 -0.0443121 -2.7719e-25 0 -1.83905e-12 0 3.14466e-28
7 1 0.001 -0.0225 0 -0.0436745 2.7719e-25 0 7.14539e-12 0 1.13303e-27
8 1 0.001 -0.0225 0 -0.0430369 2.7719e-25 0 -7.72994e-12 0 1.27521e-27
157 2 0.001 -0.0175 0 -0.0436745 2.7719e-25 0 7.14539e-12 0 1.13303e-27
158 2 0.001 -0.0175 0 -0.0430369 2.7719e-25 0 -7.72994e-12 0 1.27521e-27
307 3 0.001 -0.0125 0 -0.0436745 -2.7719e-25 0 7.14539e-12 0 1.13303e-27
308 3 0.001 -0.0125 0 -0.0430369 -2.7719e-25 0 -7.72994e-12 0 1.27521e-27
457 4 0.001 -0.00750005 0 -0.0436745 -2.7719e-25 0 7.14539e-12 0 1.13303e-27
458 4 0.001 -0.00750005 0 -0.0430369 -2.7719e-25 0 -7.72994e-12 0 1.27521e-27
607 5 0.001 -0.00250005 0 -0.0436745 -2.7719e-25 0 7.14539e-12 0 1.13303e-27
608 5 0.001 -0.00250005 0 -0.0430369 -2.7719e-25 0 -7.72994e-12 0 1.27521e-27
757 6 0.001 0.00250005 0 -0.0436745 2.7719e-25 0 7.14539e-12 0 1.13303e-27
758 6 0.001 0.00250005 0 -0.0430369 2.7719e-25 0 -7.72994e-12 0 1.27521e-27
907 7 0.001 0.00749995 0 -0.0436745 -2.7719e-25 0 7.14539e-12 0 1.13303e-27
908 7 0.001 0.00749995 0 -0.0430369 -2.7719e-25 0 -7.72994e-12 0 1.27521e-27
1057 8 0.001 0.0125 0 -0.0436745 2.7719e-25 0 7.14539e-12 0 1.13303e-27
1058 8 0.001 0.0125 0 -0.0430369 2.7719e-25 0 -7.72994e-12 0 1.27521e-27
1207 9 0.001 0.0175 0 -0.0436745 -2.7719e-25 0 7.14539e-12 0 1.13303e-27
1208 9 0.001 0.0175 0 -0.0430369 -2.7719e-25 0 -7.72994e-12 0 1.27521e-27
1357 10 0.001 0.0225 0 -0.0436745 -2.7719e-25 0 7.14539e-12 0 1.13303e-27
1358 10 0.001 0.0225 0 -0.0430369 -2.7719e-25 0 -7.72994e-12 0 1.27521e-27
9 1 0.001 -0.0225 0 -0.0423993 2.7719e-25 0 4.76258e-12 0 5.29348e-28
10 1 0.001 -0.0225 0 -0.0417617 2.7719e-25 0 -3.34327e-12 0 2.33333e-28
11 1 0.001 -0.0225 0 -0.0411242 2.7719e-25 0 5.55925e-12 0 7.20944e-28
159 2 0.001 -0.0175 0 -0.0423993 2.7719e-25 0 4.76258e-12 0 5.29348e-28
160 2 0.001 -0.0175 0 -0.0417617 2.7719e-25 0 -3.34327e-12 0 2.33333e-28
161 2 0.001 -0.0175 0 -0.0411242 2.7719e-25 0 5.55925e-12 0 7.20944e-28
309 3 0.001 -0.0125 0 -0.0423993 -2.7719e-25 0 4.76258e-12 0 5.29348e-28
310 3 0.001 -0.0125 0 -0.0417617 -2.7719e-25 0 -3.34327e-12 0 2.33333e-28
311 3 0.001 -0.0125 0 -0.0411242 -2.7719e-25 0 5.55925e-12 0 7.20944e-28
459 4 0.001 -0.00750005 0 -0.0423993 -2.7719e-25 0 4.76258e-12 0 5.29348e-28
460 4 0.001 -0.00750005 0 -0.0417617 -2.7719e-25 0 -3.34327e-12 0 2.33333e-28
461 4 0.001 -0.00750005 0 -0.0411242 -2.7719e-25 0 5.55925e-12 0 7.20944e-28
609 5 0.001 -0.00250005 0 -0.0423993 -2.7719e-25 0 4.76258e-12 0 5.29348e-28
610 5 0.001 -0.00250005 0 -0.0417617 -2.7719e-25 0 -3.34327e-12 0 2.33333e-28
611 5 0.001 -0.00250005 0 -0.0411242 -2.7719e-25 0 5.55925e-12 0 7.20944e-28
759 6 0.001 0.00250005 0 -0.0423993 2.7719e-25 0 4.76258e-12 0 5.29348e-28
760 6 0.001 0.00250005 0 -0.0417617 2.7719e-25 0 -3.34327e-12 0 2.33333e-28
761 6 0.001 0.00250005 0 -0.0411242 2.7719e-25 0 5.55925e-12 0 7.20944e-28
909 7 0.001 0.00749995 0 -0.0423993 -2.7719e-25 0 4.76258e-12 0 5.29348e-28
910 7 0.001 0.00749995 0 -0.0417617 -2.7719e-25 0 -3.34327e-12 0 2.33333e-28
911 7 0.001 0.00749995 0 -0.0411242 -2.7719e-25 0 5.55925e-12 0 7.20944e-28
1059 8 0.001 0.0125 0 -0.0423993 2.7719e-25 0 4.76258e-12 0 5.29348e-28
1060 8 0.001 0.0125 0 -0.0417617 2.7719e-25 0 -3.34327e-12 0 2.33333e-28
1061 8 0.001 0.0125 0 -0.0411242 2.7719e-25 0 5.55925e-12 0 7.20944e-28
1209 9 0.001 0.0175 0 -0.0423993 -2.7719e-25 0 4.76258e-12 0 5.29348e-28
1210 9 0.001 0.0175 0 -0.0417617 -2.7719e-25 0 -3.34327e-12 0 2.33333e-28
1211 9 0.001 0.0175 0 -0.0411242 -2.7719e-25 0 5.55925e-12 0 7.20944e-28
1359 10 0.001 0.0225 0 -0.0423993 -2.7719e-25 0 4.76258e-12 0 5.29348e-28
1360 10 0.001 0.0225 0 -0.0417617 -2.7719e-25 0 -3.34327e-12 0 2.33333e-28
1361 10 0.001 0.0225 0 -0.0411242 -2.7719e-25 0 5.55925e-12 0 7.20944e-28
12 1 0.001 -0.0225 0 -0.0404866 2.7719e-25 0 -6.8941e-12 0 9.94907e-28
13 1 0.001 -0.0225 0 -0.039849 2.7719e-25 0 2.63122e-12 0 4.18821e-28
162 2 0.001 -0.0175 0 -0.0404866 2.7719e-25 0 -6.8941e-12 0 9.94907e-28
163 2 0.001 -0.0175 0 -0.039849 2.7719e-25 0 2.63122e-12 0 4.18821e-28
312 3 0.001 -0.0125 0 -0.0404866 -2.7719e-25 0 -6.8941e-12 0 9.94907e-28
313 3 0.001 -0.0125 0 -0.039849 -2.7719e-25 0 2.63122e-12 0 4.18821e-28
462 4 0.001 -0.00750005 0 -0.0404866 -2.7719e-25 0 -6.8941e-12 0 9.94907e-28
463 4 0.001 -0.00750005 0 -0.039849 -2.7719e-25 0 2.63122e-12 0 4.18821e-28
612 5 0.001 -0.00250005 0 -0.0404866 -2.7719e-25 0 -6.8941e-12 0 9.94907e-28
613 5 0.001 -0.00250005 0 -0.039849 -2.7719e-25 0 2.63122e-12 0 4.18821e-28
762 6 0.001 0.00250005 0 -0.0404866 2.7719e-25 0 -6.8941e-12 0 9.94907e-28
763 6 0.001 0.00250005 0 -0.039849 2.7719e-25 0 2.63122e-12 0 4.18821e-28
912 7 0.001 0.00749995 0 -0.0404866 -2.7719e-25 0 -6.8941e-12 0 9.94907e-28
913 7 0.001 0.00749995 0 -0.039849 -2.7719e-25 0 2.63122e-12 0 4.18821e-28
1062 8 0.001 0.0125 0 -0.0404866 2.7719e-25 0 -6.8941e-12 0 9.94907e-28
1063 8 0.001 0.0125 0 -0.039849 2.7719e-25 0 2.63122e-12 0 4.18821e-28
1212 9 0.001 0.0175 0 -0.0404866 -2.7719e-25 0 -6.8941e-12 0 9.94907e-28
1213 9 0.001 0.0175 0 -0.039849 -2.7719e-25 0 2.63122e-12 0 4.18821e-28
1362 10 0.001 0.0225 0 -0.0404866 -2.7719e-25 0 -6.8941e-12 0 9.94907e-28
1363 10 0.001 0.0225 0 -0.039849 -2.7719e-25 0 2.63122e-12 0 4.18821e-28
14 1 0.001 -0.0225 0 -0.0392114 2.7719e-25 0 4.13742e-12 0 5.58653e-28
15 1 0.001 -0.0225 0 -0.0385738 2.7719e-25 0 -6.51898e-12 0 8.93754e-28
16 1 0.001 -0.0225 0 -0.0379362 2.7719e-25 0 3.59373e-12 0 3.66459e-28
164 2 0.001 -0.0175 0 -0.0392114 2.7719e-25 0 4.13742e-12 0 5.58653e-28
165 2 0.001 -0.0175 0 -0.0385738 2.7719e-25 0 -6.51898e-12 0 8.93754e-28
166 2 0.001 -0.0175 0 -0.0379362 2.7719e-25 0 3.59373e-12 0 3.66459e-28
314 3 0.001 -0.0125 0 -0.0392114 -2.7719e-25 0 4.13742e-12 0 5.58653e-28
315 3 0.001 -0.0125 0 -0.0385738 -2.7719e-25 0 -6.51898e-12 0 8.93754e-28
316 3 0.001 -0.0125 0 -0.0379362 -2.7719e-25 0 3.59373e-12 0 3.66459e-28
464 4 0.001 -0.00750005 0 -0.0392114 -2.7719e-25 0 4.13742e-12 0 5.58653e-28
465 4 0.001 -0.00750005 0 -0.0385738 -2.7719e-25 0 -6.51898e-12 0 8.93754e-28
466 4 0.001 -0.00750005 0 -0.0379362 -2.7719e-25 0 3.59373e-12 0 3.66459e-28
614 5 0.001 -0.00250005 0 -0.0392114 -2.7719e-25 0 4.13742e-12 0 5.58653e-28
615 5 0.001 -0.00250005 0 -0.0385738 -2.7719e-25 0 -6.51898e-12 0 8.93754e-28
616 5 0.001 -0.00250005 0 -0.0379362 -2.7719e-25 0 3.59373e-12 0 3.66459e-28
764 6 0.001 0.00250005 0 -0.0392114 2.7719e-25 0 4.13742e-12 0 5.58653e-28
765 6 0.001 0.00250005 0 -0.0385738 2.7719e-25 0 -6.51898e-12 0 8.93754e-28
766 6 0.001 0.00250005 0 -0.0379362 2.7719e-25 0 3.59373e-12 0 3.66459e-28
914 7 0.001 0.00749995 0 -0.0392114 -2.7719e-25 0 4.13742e-12 0 5.58653e-28
915 7 0.001 0.00749995 0 -0.0385738 -2.7719e-25 0 -6.51898e-12 0 8.93754e-28
916 7 0.001 0.00749995 0 -0.0379362 -2.7719e-25 0 3.59373e-12 0 3.66459e-28
1064 8 0.001 0.0125 0 -0.0392114 2.7719e-25 0 4.13742e-12 0 5.58653e-28
1065 8 0.001 0.0125 0 -0.0385738 2.7719e-25 0 -6.51898e-12 0 8.93754e-28
1066 8 0.001 0.0125 0 -0.0379362 2.7719e-25 0 3.59373e-12 0 3.66459e-28
1214 9 0.001 0.0175 0 -0.0392114 -2.7719e-25 0 4.13742e-12 0 5.58653e-28
1215 9 0.001 0.0175 0 -0.0385738 -2.7719e-25 0 -6.51898e-12 0 8.93754e-28
1216 9 0.001 0.0175 0 -0.0379362 -2.7719e-25 0 3.59373e-12 0 3.66459e-28
1364 10 0.001 0.0225 0 -0.0392114 -2.7719e-25 0 4.13742e-12 0 5.58653e-28
1365 10 0.001 0.0225 0 -0.0385738 -2.7719e-25 0 -6.51898e-12 0 8.93754e-28
1366 10 0.001 0.0225 0 -0.0379362 -2.7719e-25 0 3.59373e-12 0 3.66459e-28
17 1 0.001 -0.0225 0 -0.0372987 2.7719e-25 0 -3.21705e-12 0 2.8223e-28
18 1 0.001 -0.0225 0 -0.0366611 2.7719e-25 0 4.1377e-12 0 3.71395e-28
167 2 0.001 -0.0175 0 -0.0372987 2.7719e-25 0 -3.21705e-12 0 2.8223e-28
168 2 0.001 -0.0175 0 -0.0366611 2.7719e-25 0 4.1377e-12 0 3.71395e-28
317 3 0.001 -0.0125 0 -0.0372987 -2.7719e-25 0 -3.21705e-12 0 2.8223e-28
318 3 0.001 -0.0125 0 -0.0366611 -2.7719e-25 0 4.1377e-12 0 3.71395e-28
467 4 0.001 -0.00750005 0 -0.0372987 -2.7719e-25 0 -3.21705e-12 0 2.8223e-28
468 4 0.001 -0.00750005 0 -0.0366611 -2.7719e-25 0 4.1377e-12 0 3.71395e-28
617 5 0.001 -0.00250005 0 -0.0372987 -2.7719e-25 0 -3.21705e-12 0 2.8223e-28
618 5 0.001 -0.00250005 0 -0.0366611 -2.7719e-25 0 4.1377e-12 0 3.71395e-28
767 6 0.001 0.00250005 0 -0.0372987 2.7719e-25 0 -3.21705e-12 0 2.8223e-28
768 6 0.001 0.00250005 0 -0.0366611 2.7719e-25 0 4.1377e-12 0 3.71395e-28
917 7 0.001 0.00749995 0 -0.0372987 -2.7719e-25 0 -3.21705e-12 0 2.8223e-28
918 7 0.001 0.00749995 0 -0.0366611 -2.7719e-25 0 4.1377e-12 0 3.71395e-28
1067 8 0.001 0.0125 0 -0.0372987 2.7719e-25 0 -3.21705e-12 0 2.8223e-28
1068 8 0.001 0.0125 0 -0.0366611 2.7719e-25 0 4.1377e-12 0 3.71395e-28
1217 9 0.001 0.0175 0 -0.0372987 -2.7719e-25 0 -3.21705e-12 0 2.8223e-28
1218 9 0.001 0.0175 0 -0.0366611 -2.7719e-25 0 4.1377e-12 0 3.71395e-28
1367 10 0.001 0.0225 0 -0.0372987 -2.7719e-25 0 -3.21705e-12 0 2.8223e-28
1368 10 0.001 0.0225 0 -0.0366611 -2.7719e-25 0 4.1377e-12 0 3.71395e-28
19 1 0.001 -0.0225 0 -0.0360235 2.7719e-25 0 1.37787e-12 0 4.85332e-28
20 1 0.001 -0.0225 0 -0.0353859 2.7719e-25 0 -8.27479e-12 0 1.52713e-27
169 2 0.001 -0.0175 0 -0.0360235 2.7719e-25 0 1.37787e-12 0 4.85332e-28
170 2 0.001 -0.0175 0 -0.0353859 2.7719e-25 0 -8.27479e-12 0 1.52713e-27
319 3 0.001 -0.0125 0 -0.0360235 -2.7719e-25 0 1.37787e-12 0 4.85332e-28
320 3 0.001 -0.0125 0 -0.0353859 -2.7719e-25 0 -8.27479e-12 0 1.52713e-27
469 4 0.001 -0.00750005 0 -0.0360235 -2.7719e-25 0 1.37787e-12 0 4.85332e-28
470 4 0.001 -0.00750005 0 -0.0353859 -2.7719e-25 0 -8.27479e-12 0 1.52713e-27
619 5 0.001 -0.00250005 0 -0.0360235 -2.7719e-25 0 1.37787e-12 0 4.85332e-28
620 5 0.001 -0.00250005 0 -0.0353859 -2.7719e-25 0 -8.27479e-12 0 1.52713e-27
769 6 0.001 0.00250005 0 -0.0360235 2.7719e-25 0 1.37787e-12 0 4.85332e-28
770 6 0.001 0.00250005 0 -0.0353859 2.7719e-25 0 -8.27479e-12 0 1.52713e-27
919 7 0.001 0.00749995 0 -0.0360235 -2.7719e-25 0 1.37787e-12 0 4.85332e-28
920 7 0.001 0.00749995 0 -0.0353859 -2.7719e-25 0 -8.27479e-12 0 1.52713e-27
1069 8 0.001 0.0125 0 -0.0360235 2.7719e-25 0 1.37787e-12 0 4.85332e-28
1070 8 0.001 0.0125 0 -0.0353859 2.7719e-25 0 -8.27479e-12 0 1.52713e-27
1219 9 0.001 0.0175 0 -0.0360235 -2.7719e-25 0 1.37787e-12 0 4.85332e-28
1220 9 0.001 0.0175 0 -0.0353859 -2.7719e-25 0 -8.27479e-12 0 1.52713e-27
1369 10 0.001 0.0225 0 -0.0360235 -2.7719e-25 0 1.37787e-12 0 4.85332e-28
1370 10 0.001 0.0225 0 -0.0353859 -2.7719e-25 0 -8.27479e-12 0 1.52713e-27
21 1 0.001 -0.0225 0 -0.0347483 2.7719e-25 0 8.35838e-12 0 1.54829e-27
22 1 0.001 -0.0225 0 -0.0341107 2.7719e-25 0 -1.37833e-12 0 5.18073e-28
23 1 0.001 -0.0225 0 -0.0334732 2.7719e-25 0 -5.14166e-12 0 6.09608e-28
171 2 0.001 -0.0175 0 -0.0347483 2.7719e-25 0 8.35838e-12 0 1.54829e-27
172 2 0.001 -0.0175 0 -0.0341107 2.7719e-25 0 -1.37833e-12 0 5.18073e-28
173 2 0.001 -0.0175 0 -0.0334732 2.7719e-25 0 -5.14166e-12 0 6.09608e-28
321 3 0.001 -0.0125 0 -0.0347483 -2.7719e-25 0 8.35838e-12 0 1.54829e-27
322 3 0.001 -0.0125 0 -0.0341107 -2.7719e-25 0 -1.37833e-12 0 5.18073e-28
323 3 0.001 -0.0125 0 -0.0334732 -2.7719e-25 0 -5.14166e-12 0 6.09608e-28
471 4 0.001 -0.00750005 0 -0.0347483 -2.7719e-25 0 8.35838e-12 0 1.54829e-27
472 4 0.001 -0.00750005 0 -0.0341107 -2.7719e-25 0 -1.37833e-12 0 5.18073e-28
473 4 0.001 -0.00750005 0 -0.0334732 -2.7719e-25 0 -5.14166e-12 0 6.09608e-28
621 5 0.001 -0.00250005 0 -0.0347483 -2.7719e-25 0 8.35838e-12 0 1.54829e-27
622 5 0.001 -0.00250005 0 -0.0341107 -2.7719e-25 0 -1.37833e-12 0 5.18073e-28
623 5 0.001 -0.00250005 0 -0.0334732 -2.7719e-25 0 -5.14166e-12 0 6.09608e-28
771 6 0.001 0.00250005 0 -0.0347483 2.7719e-25 0 8.35838e-12 0 1.54829e-27
772 6 0.001 0.00250005 0 -0.0341107 2.7719e-25 0 -1.37833e-12 0 5.18073e-28
773 6 0.001 0.00250005 0 -0.0334732 2.7719e-25 0 -5.14166e-12 0 6.09608e-28
921 7 0.001 0.00749995 0 -0.0347483 -2.7719e-25 0 8.35838e-12 0 1.54829e-27
922 7 0.001 0.00749995 0 -0.0341107 -2.7719e-25 0 -1.37833e-12 0 5.18073e-28
923 7 0.001 0.00749995 0 -0.0334732 -2.7719e-25 0 -5.14166e-12 0 6.09608e-28
1071 8 0.001 0.0125 0 -0.0347483 2.7719e-25 0 8.35838e-12 0 1.54829e-27
1072 8 0.001 0.0125 0 -0.0341107 2.7719e-25 0 -1.37833e-12 0 5.18073e-28
1073 8 0.001 0.0125 0 -0.0334732 2.7719e-25 0 -5.14166e-12 0 6.09608e-28
1221 9 0.001 0.0175 0 -0.0347483 -2.7719e-25 0 8.35838e-12 0 1.54829e-27
1222 9 0.001 0.0175 0 -0.0341107 -2.7719e-25 0 -1.37833e-12 0 5.18073e-28
1223 9 0.001 0.0175 0 -0.0334732 -2.7719e-25 0 -5.14166e-12 0 6.09608e-28
1371 10 0.001 0.0225 0 -0.0347483 -2.7719e-25 0 8.35838e-12 0 1.54829e-27
1372 10 0.001 0.0225 0 -0.0341107 -2.7719e-25 0 -1.37833e-12 0 5.18073e-28
1373 10 0.001 0.0225 0 -0.0334732 -2.7719e-25 0 -5.14166e-12 0 6.09608e-28
24 1 0.001 -0.0225 0 -0.0328356 2.7719e-25 0 4.63795e-12 0 5.48793e-28
25 1 0.001 -0.0225 0 -0.032198 2.7719e-25 0 -2.49453e-13 0 9.89665e-29
174 2 0.001 -0.0175 0 -0.0328356 2.7719e-25 0 4.63795e-12 0 5.48793e-28
175 2 0.001 -0.0175 0 -0.032198 2.7719e-25 0 -2.49453e-13 0 9.89665e-29
324 3 0.001 -0.0125 0 -0.0328356 -2.7719e-25 0 4.63795e-12 0 5.48793e-28
325 3 0.001 -0.0125 0 -0.032198 -2.7719e-25 0 -2.49453e-13 0 9.89665e-29
474 4 0.001 -0.00750005 0 -0.0328356 -2.7719e-25 0 4.63795e-12 0 5.48793e-28
475 4 0.001 -0.00750005 0 -0.032198 -2.7719e-25 0 -2.49453e-13 0 9.89665e-29
624 5 0.001 -0.00250005 0 -0.0328356 -2.7719e-25 0 4.63795e-12 0 5.48793e-28
625 5 0.001 -0.00250005 0 -0.032198 -2.7719e-25 0 -2.49453e-13 0 9.89665e-29
774 6 0.001 0.00250005 0 -0.0328356 2.7719e-25 0 4.63795e-12 0 5.48793e-28
775 6 0.001 0.00250005 0 -0.032198 2.7719e-25 0 -2.49453e-13 0 9.89665e-29
924 7 0.001 0.00749995 0 -0.0328356 -2.7719e-25 0 4.63795e-12 0 5.48793e-28
925 7 0.001 0.00749995 0 -0.032198 -2.7719e-25 0 -2.49453e-13 0 9.89665e-29
1074 8 0.001 0.0125 0 -0.0328356 2.7719e-25 0 4.63795e-12 0 5.48793e-28
1075 8 0.001 0.0125 0 -0.032198 2.7719e-25 0 -2.49453e-13 0 9.89665e-29
1224 9 0.001 0.0175 0 -0.0328356 -2.7719e-25 0 4.63795e-12 0 5.48793e-28
1225 9 0.001 0.0175 0 -0.032198 -2.7719e-25 0 -2.49453e-13 0 9.89665e-29
1374 10 0.001 0.0225 0 -0.0328356 -2.7719e-25 0 4.63795e-12 0 5.48793e-28
1375 10 0.001 0.0225 0 -0.032198 -2.7719e-25 0 -2.49453e-13 0 9.89665e-29
26 1 0.001 -0.0225 0 -0.0315604 2.7719e-25 0 -1.69376e-12 0 6.05153e-29
27 1 0.001 -0.0225 0 -0.0309228 2.7719e-25 0 1.19208e-12 0 3.10184e-29
176 2 0.001 -0.0175 0 -0.0315604 2.7719e-25 0 -1.69376e-12 0 6.05153e-29
177 2 0.001 -0.0175 0 -0.0309228 2.7719e-25 0 1.19208e-12 0 3.10184e-29
326 3 0.001 -0.0125 0 -0.0315604 -2.7719e-25 0 -1.69376e-12 0 6.05153e-29
327 3 0.001 -0.0125 0 -0.0309228 -2.7719e-25 0 1.19208e-12 0 3.10184e-29
476 4 0.001 -0.00750005 0 -0.0315604 -2.7719e-25 0 -1.69376e-12 0 6.05153e-29
477 4 0.001 -0.00750005 0 -0.0309228 -2.7719e-25 0 1.19208e-12 0 3.10184e-29
626 5 0.001 -0.00250005 0 -0.0315604 -2.7719e-25 0 -1.69376e-12 0 6.05153e-29
627 5 0.001 -0.00250005 0 -0.0309228 -2.7719e-25 0 1.19208e-12 0 3.10184e-29
776 6 0.001 0.00250005 0 -0.0315604 2.7719e-25 0 -1.69376e-12 0 6.05153e-29
777 6 0.001 0.00250005 0 -0.0309228 2.7719e-25 0 1.19208e-12 0 3.10184e-29
926 7 0.001 0.00749995 0 -0.0315604 -2.7719e-25 0 -1.69376e-12 0 6.05153e-29
927 7 0.001 0.00749995 0 -0.0309228 -2.7719e-25 0 1.19208e-12 0 3.10184e-29
1076 8 0.001 0.0125 0 -0.0315604 2.7719e-25 0 -1.69376e-12 0 6.05153e-29
1077 8 0.001 0.0125 0 -0.0309228 2.7719e-25 0 1.19208e-12 0 3.10184e-29
1226 9 0.001 0.0175 0 -0.0315604 -2.7719e-25 0 -1.69376e-12 0 6.05153e-29
1227 9 0.001 0.0175 0 -0.0309228 -2.7719e-25 0 1.19208e-12 0 3.10184e-29
1376 10 0.001 0.0225 0 -0.0315604 -2.7719e-25 0 -1.69376e-12 0 6.05153e-29
1377 10 0.001 0.0225 0 -0.0309228 -2.7719e-25 0 1.19208e-12 0 3.10184e-29
28 1 0.001 -0.0225 0 -0.0302852 2.7719e-25 0 -1.98525e-12 0 1.05529e-28
29 1 0.001 -0.0225 0 -0.0296477 2.7719e-25 0 2.19402e-12 0 1.15282e-28
30 1 0.001 -0.0225 0 -0.0290101 2.7719e-25 0 -8.20638e-14 0 3.25646e-29
178 2 0.001 -0.0175 0 -0.0302852 2.7719e-25 0 -1.98525e-12 0 1.05529e-28
179 2 0.001 -0.0175 0 -0.0296477 2.7719e-25 0 2.19402e-12 0 1.15282e-28
180 2 0.001 -0.0175 0 -0.0290101 2.7719e-25 0 -8.20638e-14 0 3.25646e-29
328 3 0.001 -0.0125 0 -0.0302852 -2.7719e-25 0 -1.98525e-12 0 1.05529e-28
329 3 0.001 -0.0125 0 -0.0296477 -2.7719e-25 0 2.19402e-12 0 1.15282e-28
330 3 0.001 -0.0125 0 -0.0290101 -2.7719e-25 0 -8.20638e-14 0 3.25646e-29
478 4 0.001 -0.00750005 0 -0.0302852 -2.7719e-25 0 -1.98525e-12 0 1.05529e-28
479 4 0.001 -0.00750005 0 -0.0296477 -2.7719e-25 0 2.19402e-12 0 1.15282e-28
480 4 0.001 -0.00750005 0 -0.0290101 -2.7719e-25 0 -8.20638e-14 0 3.25646e-29
628 5 0.001 -0.00250005 0 -0.0302852 -2.7719e-25 0 -1.98525e-12 0 1.05529e-28
629 5 0.001 -0.00250005 0 -0.0296477 -2.7719e-25 0 2.19402e-12 0 1.15282e-28
630 5 0.001 -0.00250005 0 -0.0290101 -2.7719e-25 0 -8.20638e-14 0 3.25646e-29
778 6 0.001 0.00250005 0 -0.0302852 2.7719e-25 0 -1.98525e-12 0 1.05529e-28
779 6 0.001 0.00250005 0 -0.0296477 2.7719e-25 0 2.19402e-12 0 1.15282e-28
780 6 0.001 0.00250005 0 -0.0290101 2.7719e-25 0 -8.20638e-14 0 3.25646e-29
928 7 0.001 0.00749995 0 -0.0302852 -2.7719e-25 0 -1.98525e-12 0 1.05529e-28
929 7 0.001 0.00749995 0 -0.0296477 -2.7719e-25 0 2.19402e-12 0 1.15282e-28
930 7 0.001 0.00749995 0 -0.0290101 -2.7719e-25 0 -8.20638e-14 0 3.25646e-29
1078 8 0.001 0.0125 0 -0.0302852 2.7719e-25 0 -1.98525e-12 0 1.05529e-28
1079 8 0.001 0.0125 0 -0.0296477 2.7719e-25 0 2.19402e-12 0 1.15282e-28
1080 8 0.001 0.0125 0 -0.0290101 2.7719e-25 0 -8.20638e-14 0 3.25646e-29
1228 9 0.001 0.0175 0 -0.0302852 -2.7719e-25 0 -1.98525e-12 0 1.05529e-28
1229 9 0.001 0.0175 0 -0.0296477 -2.7719e-25 0 2.19402e-12 0 1.15282e-28
1230 9 0.001 0.0175 0 -0.0290101 -2.7719e-25 0 -8.20638e-14 0 3.25646e-29
1378 10 0.001 0.0225 0 -0.0302852 -2.7719e-25 0 -1.98525e-12 0 1.05529e-28
1379 10 0.001 0.0225 0 -0.0296477 -2.7719e-25 0 2.19402e-12 0 1.15282e-28
1380 10 0.001 0.0225 0 -0.0290101 -2.7719e-25 0 -8.20638e-14 0 3.25646e-29
31 1 0.001 -0.0225 0 -0.0283725 2.7719e-25 0 -1.27589e-12 0 3.39636e-29
32 1 0.001 -0.0225 0 -0.0277349 2.7719e-25 0 1.44258e-12 0 4.32159e-29
181 2 0.001 -0.0175 0 -0.0283725 2.7719e-25 0 -1.27589e-12 0 3.39636e-29
182 2 0.001 -0.0175 0 -0.0277349 2.7719e-25 0 1.44258e-12 0 4.32159e-29
331 3 0.001 -0.0125 0 -0.0283725 -2.7719e-25 0 -1.27589e-12 0 3.39636e-29
332 3 0.001 -0.0125 0 -0.0277349 -2.7719e-25 0 1.44258e-12 0 4.32159e-29
481 4 0.001 -0.00750005 0 -0.0283725 -2.7719e-25 0 -1.27589e-12 0 3.39636e-29
482 4 0.001 -0.00750005 0 -0.0277349 -2.7719e-25 0 1.44258e-12 0 4.32159e-29
631 5 0.001 -0.00250005 0 -0.0283725 -2.7719e-25 0 -1.27589e-12 0 3.39636e-29
632 5 0.001 -0.00250005 0 -0.0277349 -2.7719e-25 0 1.44258e-12 0 4.32159e-29
781 6 0.001 0.00250005 0 -0.0283725 2.7719e-25 0 -1.27589e-12 0 3.39636e-29
782 6 0.001 0.00250005 0 -0.0277349 2.7719e-25 0 1.44258e-12 0 4.32159e-29
931 7 0.001 0.00749995 0 -0.0283725 -2.7719e-25 0 -1.27589e-12 0 3.39636e-29
932 7 0.001 0.00749995 0 -0.0277349 -2.7719e-25 0 1.44258e-12 0 4.32159e-29
1081 8 0.001 0.0125 0 -0.0283725 2.7719e-25 0 -1.27589e-12 0 3.39636e-29
1082 8 0.001 0.0125 0 -0.0277349 2.7719e-25 0 1.44258e-12 0 4.32159e-29
1231 9 0.001 0.0175 0 -0.0283725 -2.7719e-25 0 -1.27589e-12 0 3.39636e-29
1232 9 0.001 0.0175 0 -0.0277349 -2.7719e-25 0 1.44258e-12 0 4.32159e-29
1381 10 0.001 0.0225 0 -0.0283725 -2.7719e-25 0 -1.27589e-12 0 3.39636e-29
1382 10 0.001 0.0225 0 -0.0277349 -2.7719e-25 0 1.44258e-12 0 4.32159e-29
33 1 0.001 -0.0225 0 -0.0270973 2.7719e-25 0 -3.55418e-13 0 2.98449e-29
34 1 0.001 -0.0225 0 -0.0264597 2.7719e-25 0 2.29062e-13 0 2.26882e-29
35 1 0.001 -0.0225 0 -0.0258221 2.7719e-25 0 -1.50413e-12 0 4.83235e-29
183 2 0.001 -0.0175 0 -0.0270973 2.7719e-25 0 -3.55418e-13 0 2.98449e-29
184 2 0.001 -0.0175 0 -0.0264597 2.7719e-25 0 2.29062e-13 0 2.26882e-29
185 2 0.001 -0.0175 0 -0.0258221 2.7719e-25 0 -1.50413e-12 0 4.83235e-29
333 3 0.001 -0.0125 0 -0.0270973 -2.7719e-25 0 -3.55418e-13 0 2.98449e-29
334 3 0.001 -0.0125 0 -0.0264597 -2.7719e-25 0 2.29062e-13 0 2.26882e-29
335 3 0.001 -0.0125 0 -0.0258221 -2.7719e-25 0 -1.50413e-12 0 4.83235e-29
483 4 0.001 -0.00750005 0 -0.0270973 -2.7719e-25 0 -3.55418e-13 0 2.98449e-29
484 4 0.001 -0.00750005 0 -0.0264597 -2.7719e-25 0 2.29062e-13 0 2.26882e-29
485 4 0.001 -0.00750005 0 -0.0258221 -2.7719e-25 0 -1.50413e-12 0 4.83235e-29
633 5 0.001 -0.00250005 0 -0.0270973 -2.7719e-25 0 -3.55418e-13 0 2.98449e-29
634 5 0.001 -0.00250005 0 -0.0264597 -2.7719e-25 0 2.29062e-13 0 2.26882e-29
635 5 0.001 -0.00250005 0 -0.0258221 -2.7719e-25 0 -1.50413e-12 0 4.83235e-29
783 6 0.001 0.00250005 0 -0.0270973 2.7719e-25 0 -3.55418e-13 0 2.98449e-29
784 6 0.001 0.00250005 0 -0.0264597 2.7719e-25 0 2.29062e-13 0 2.26882e-29
785 6 0.001 0.00250005 0 -0.0258221 2.7719e-25 0 -1.50413e-12 0 4.83235e-29
933 7 0.001 0.00749995 0 -0.0270973 -2.7719e-25 0 -3.55418e-13 0 2.98449e-29
934 7 0.001 0.00749995 0 -0.0264597 -2.7719e-25 0 2.29062e-13 0 2.26882e-29
935 7 0.001 0.00749995 0 -0.0258221 -2.7719e-25 0 -1.50413e-12 0 4.83235e-29
1083 8 0.001 0.0125 0 -0.0270973 2.7719e-25 0 -3.55418e-13 0 2.98449e-29
1084 8 0.001 0.0125 0 -0.0264597 2.7719e-25 0 2.29062e-13 0 2.26882e-29
1085 8 0.001 0.0125 0 -0.0258221 2.7719e-25 0 -1.50413e-12 0 4.83235e-29
1233 9 0.001 0.0175 0 -0.0270973 -2.7719e-25 0 -3.55418e-13 0 2.98449e-29
1234 9 0.001 0.0175 0 -0.0264597 -2.7719e-25 0 2.29062e-13 0 2.26882e-29
1235 9 0.001 0.0175 0 -0.0258221 -2.7719e-25 0 -1.50413e-12 0 4.83235e-29
1383 10 0.001 0.0225 0 -0.0270973 -2.7719e-25 0 -3.55418e-13 0 2.98449e-29
1384 10 0.001 0.0225 0 -0.0264597 -2.7719e-25 0 2.29062e-13 0 2.26882e-29
1385 10 0.001 0.0225 0 -0.0258221 -2.7719e-25 0 -1.50413e-12 0 4.83235e-29
36 1 0.001 -0.0225 0 -0.0251846 2.7719e-25 0 1.02344e-12 0 3.29781e-29
37 1 0.001 -0.0225 0 -0.024547 2.7719e-25 0 -2.1527e-12 0 1.68222e-28
186 2 0.001 -0.0175 0 -0.0251846 2.7719e-25 0 1.02344e-12 0 3.29781e-29
187 2 0.001 -0.0175 0 -0.024547 2.7719e-25 0 -2.1527e-12 0 1.68222e-28
336 3 0.001 -0.0125 0 -0.0251846 -2.7719e-25 0 1.02344e-12 0 3.29781e-29
337 3 0.001 -0.0125 0 -0.024547 -2.7719e-25 0 -2.1527e-12 0 1.68222e-28
486 4 0.001 -0.00750005 0 -0.0251846 -2.7719e-25 0 1.02344e-12 0 3.29781e-29
487 4 0.001 -0.00750005 0 -0.024547 -2.7719e-25 0 -2.1527e-12 0 1.68222e-28
636 5 0.001 -0.00250005 0 -0.0251846 -2.7719e-25 0 1.02344e-12 0 3.29781e-29
637 5 0.001 -0.00250005 0 -0.024547 -2.7719e-25 0 -2.1527e-12 0 1.68222e-28
786 6 0.001 0.00250005 0 -0.0251846 2.7719e-25 0 1.02344e-12 0 3.29781e-29
787 6 0.001 0.00250005 0 -0.024547 2.7719e-25 0 -2.1527e-12 0 1.68222e-28
936 7 0.001 0.00749995 0 -0.0251846 -2.7719e-25 0 1.02344e-12 0 3.29781e-29
937 7 0.001 0.00749995 0 -0.024547 -2.7719e-25 0 -2.1527e-12 0 1.68222e-28
1086 8 0.001 0.0125 0 -0.0251846 2.7719e-25 0 1.02344e-12 0 3.29781e-29
1087 8 0.001 0.0125 0 -0.024547 2.7719e-25 0 -2.1527e-12 0 1.68222e-28
1236 9 0.001 0.0175 0 -0.0251846 -2.7719e-25 0 1.02344e-12 0 3.29781e-29
1237 9 0.001 0.0175 0 -0.024547 -2.7719e-25 0 -2.1527e-12 0 1.68222e-28
1386 10 0.001 0.0225 0 -0.0251846 -2.7719e-25 0 1.02344e-12 0 3.29781e-29
1387 10 0.001 0.0225 0 -0.024547 -2.7719e-25 0 -2.1527e-12 0 1.68222e-28
38 1 0.001 -0.0225 0 -0.0239094 2.7719e-25 0 5.14023e-12 0 5.74638e-28
39 1 0.001 -0.0225 0 -0.0232718 2.7719e-25 0 -2.65375e-12 0 4.1679e-28
188 2 0.001 -0.0175 0 -0.0239094 2.7719e-25 0 5.14023e-12 0 5.74638e-28
189 2 0.001 -0.0175 0 -0.0232718 2.7719e-25 0 -2.65375e-12 0 4.1679e-28
338 3 0.001 -0.0125 0 -0.0239094 -2.7719e-25 0 5.14023e-12 0 5.74638e-28
339 3 0.001 -0.0125 0 -0.0232718 -2.7719e-25 0 -2.65375e-12 0 4.1679e-28
488 4 0.001 -0.00750005 0 -0.0239094 -2.7719e-25 0 5.14023e-12 0 5.74638e-28
489 4 0.001 -0.00750005 0 -0.0232718 -2.7719e-25 0 -2.65375e-12 0 4.1679e-28
638 5 0.001 -0.00250005 0 -0.0239094 -2.7719e-25 0 5.14023e-12 0 5.74638e-28
639 5 0.001 -0.00250005 0 -0.0232718 -2.7719e-25 0 -2.65375e-12 0 4.1679e-28
788 6 0.001 0.00250005 0 -0.0239094 2.7719e-25 0 5.14023e-12 0 5.74638e-28
789 6 0.001 0.00250005 0 -0.0232718 2.7719e-25 0 -2.65375e-12 0 4.1679e-28
938 7 0.001 0.00749995 0 -0.0239094 -2.7719e-25 0 5.14023e-12 0 5.74638e-28
939 7 0.001 0.00749995 0 -0.0232718 -2.7719e-25 0 -2.65375e-12 0 4.1679e-28
1088 8 0.001 0.0125 0 -0.0239094 2.7719e-25 0 5.14023e-12 0 5.74638e-28
1089 8 0.001 0.0125 0 -0.0232718 2.7719e-25 0 -2.65375e-12 0 4.1679e-28
1238 9 0.001 0.0175 0 -0.0239094 -2.7719e-25 0 5.14023e-12 0 5.74638e-28
1239 9 0.001 0.0175 0 -0.0232718 -2.7719e-25 0 -2.65375e-12 0 4.1679e-28
1388 10 0.001 0.0225 0 -0.0239094 -2.7719e-25 0 5.14023e-12 0 5.74638e-28
1389 10 0.001 0.0225 0 -0.0232718 -2.7719e-25 0 -2.65375e-12 0 4.1679e-28
40 1 0.001 -0.0225 0 -0.0226342 2.7719e-25 0 -5.82981e-12 0 1.19816e-27
41 1 0.001 -0.0225 0 -0.0219966 2.7719e-25 0 1.22667e-11 0 3.17321e-27
42 1 0.001 -0.0225 0 -0.0213591 2.7719e-25 0 -1.0657e-11 0 2.56588e-27
190 2 0.001 -0.0175 0 -0.0226342 2.7719e-25 0 -5.82981e-12 0 1.19816e-27
191 2 0.001 -0.0175 0 -0.0219966 2.7719e-25 0 1.22667e-11 0 3.17321e-27
192 2 0.001 -0.0175 0 -0.0213591 2.7719e-25 0 -1.0657e-11 0 2.56588e-27
340 3 0.001 -0.0125 0 -0.0226342 -2.7719e-25 0 -5.82981e-12 0 1.19816e-27
341 3 0.001 -0.0125 0 -0.0219966 -2.7719e-25 0 1.22667e-11 0 3.17321e-27
342 3 0.001 -0.0125 0 -0.0213591 -2.7719e-25 0 -1.0657e-11 0 2.56588e-27
490 4 0.001 -0.00750005 0 -0.0226342 -2.7719e-25 0 -5.82981e-12 0 1.19816e-27