ITEM: TIMESTEP
1600000
ITEM: NUMBER OF ATOMS
1500
ITEM: BOX BOUNDS ff ff ff
-2.5000000000000001e-02 2.5000000000000001e-02
-5.0000000000000001e-03 5.0000000000000001e-03
-5.0000000000000003e-02 5.0000000000000003e-02
ITEM: ATOMS id type radius x y z fx fy fz c_bendingE c_stretchingE
1 1 0.001 -0.0225 0 -0.04446 -0.13603 0 -3.8e-09 6.24773e-07 1.59293e-34
151 2 0.001 -0.0175 0 -0.04446 -0.128139 0 -3.8e-09 5.54365e-07 1.59293e-34
301 3 0.001 -0.0125 0 -0.04446 -0.103667 0 -3.8e-09 3.62787e-07 1.59293e-34
451 4 0.001 -0.0075 0 -0.04446 -0.0676461 0 -3.8e-09 1.54449e-07 1.59293e-34
601 5 0.001 -0.0025 0 -0.04446 -0.0371174 0 -3.8e-09 4.64967e-08 1.59293e-34
751 6 0.001 0.0025 0 -0.04446 -0.0122194 0 -3.8e-09 5.03911e-09 1.59293e-34
901 7 0.001 0.0075 0 -0.04446 0.0141665 0 -3.8e-09 6.77292e-09 1.59293e-34
1051 8 0.001 0.0125 0 -0.04446 0.0442357 0 -3.8e-09 6.60418e-08 1.59293e-34
1201 9 0.001 0.0175 0 -0.04446 0.0679351 0 -3.8e-09 1.55772e-07 1.59293e-34
1351 10 0.001 0.0225 0 -0.04446 0.0679613 0 -3.8e-09 1.55892e-07 1.59293e-34
2 1 0.001 -0.0225 0 -0.0438224 0.135945 0 -0.0163375 1.24387e-06 1.10637e-08
3 1 0.001 -0.0224726 0 -0.0431881 -2.02625e-07 0 -5.75891e-08 1.85099e-06 2.20709e-08
4 1 0.001 -0.0224179 0 -0.0425556 -5.25606e-07 0 -9.63194e-08 1.8153e-06 2.19187e-08
152 2 0.001 -0.0175 0 -0.0438224 0.128316 0 -0.0183385 1.10081e-06 1.39256e-08
153 2 0.001 -0.0174742 0 -0.0431884 2.47152e-07 0 1.36723e-08 1.63312e-06 2.77718e-08
154 2 0.001 -0.0174228 0 -0.0425559 6.20111e-07 0 2.17492e-08 1.59108e-06 2.757e-08
302 3 0.001 -0.0125 0 -0.0438224 0.104588 0 -0.0188794 7.1491e-07 1.47317e-08
303 3 0.001 -0.0124791 0 -0.0431883 -2.43776e-07 0 7.69335e-08 1.05242e-06 2.93697e-08
304 3 0.001 -0.0124377 0 -0.0425552 -6.72603e-07 0 1.75401e-07 1.00893e-06 2.91548e-08
452 4 0.001 -0.0075 0 -0.0438224 0.0702097 0 -0.0105642 2.96453e-07 4.58227e-09
453 4 0.001 -0.00748634 0 -0.0431867 5.42667e-08 0 5.96232e-08 4.25633e-07 9.11256e-09
454 4 0.001 -0.00745959 0 -0.0425514 1.39983e-07 0 1.24332e-07 3.87337e-07 9.00764e-09
602 5 0.001 -0.0025 0 -0.0438224 0.0394626 0 -0.00953561 8.70544e-08 3.75198e-09
603 5 0.001 -0.0024925 0 -0.0431865 1.69954e-07 0 -2.93135e-08 1.21852e-07 7.4822e-09
604 5 0.001 -0.002478 0 -0.0425506 4.32117e-07 0 -5.83879e-08 1.04641e-07 7.43955e-09
752 6 0.001 0.0025 0 -0.0438224 0.0144178 0 -0.00917954 8.40768e-09 3.49119e-09
753 6 0.001 0.00250247 0 -0.0431864 -7.13265e-08 0 1.00523e-07 1.04259e-08 6.97686e-09
754 6 0.001 0.00250695 0 -0.0425503 -2.02925e-07 0 1.93431e-07 6.39034e-09 6.96696e-09
902 7 0.001 0.0075 0 -0.0438224 -0.0123705 0 -0.00820211 1.53282e-08 2.79797e-09
903 7 0.001 0.00749714 0 -0.0431862 1.40669e-07 0 1.2845e-08 2.58245e-08 5.60193e-09
904 7 0.001 0.00749106 0 -0.04255 3.79769e-07 0 2.62876e-08 3.16278e-08 5.61438e-09
1052 8 0.001 0.0125 0 -0.0438224 -0.0432941 0 -0.00668492 1.34634e-07 1.86196e-09
1053 8 0.001 0.0124911 0 -0.043186 2.95865e-08 0 2.83508e-09 2.05529e-07 3.73028e-09
1054 8 0.001 0.012473 0 -0.0425498 8.0923e-08 0 6.64462e-09 2.12417e-07 3.74235e-09
1202 9 0.001 0.0175 0 -0.0438224 -0.0679353 0 -0.00586906 3.10964e-07 1.42916e-09
1203 9 0.001 0.0174863 0 -0.043186 1.64796e-09 0 2.68042e-09 4.65e-07 2.85632e-09
1204 9 0.001 0.0174588 0 -0.0425499 5.55942e-09 0 9.20409e-09 4.61544e-07 2.85101e-09
1352 10 0.001 0.0225 0 -0.0438224 -0.0679597 0 -0.00587659 3.11211e-07 1.43284e-09
1353 10 0.001 0.0224863 0 -0.043186 -5.75745e-09 0 1.8057e-09 4.65381e-07 2.8637e-09
1354 10 0.001 0.0224588 0 -0.0425499 -1.95714e-08 0 4.00865e-09 4.61943e-07 2.85842e-09
5 1 0.001 -0.0223363 0 -0.041926 -8.72121e-07 0 -1.12306e-07 1.7616e-06 2.16908e-08
6 1 0.001 -0.0222284 0 -0.0413003 -1.1616e-06 0 -1.29251e-07 1.69109e-06 2.13935e-08
155 2 0.001 -0.0173462 0 -0.041926 1.01668e-06 0 9.85565e-10 1.53161e-06 2.72856e-08
156 2 0.001 -0.017245 0 -0.0412995 1.37209e-06 0 -3.27993e-08 1.45615e-06 2.69268e-08
305 3 0.001 -0.0123761 0 -0.0419237 -1.16542e-06 0 3.08933e-07 9.54773e-07 2.88881e-08
306 3 0.001 -0.0122951 0 -0.0412944 -1.63368e-06 0 4.4972e-07 8.91272e-07 2.85769e-08
455 4 0.001 -0.00742036 0 -0.0419168 2.30253e-07 0 1.61707e-07 3.48431e-07 8.90157e-09
456 4 0.001 -0.00736931 0 -0.041283 2.74992e-07 0 1.9131e-07 3.09441e-07 8.79584e-09
605 5 0.001 -0.00245702 0 -0.0419149 7.03952e-07 0 -9.17745e-08 8.81724e-08 7.39889e-09
606 5 0.001 -0.00243009 0 -0.0412795 9.19436e-07 0 -1.33353e-07 7.26432e-08 7.36068e-09
755 6 0.001 0.002513 0 -0.0419143 -3.98833e-07 0 2.93704e-07 3.35831e-09 6.95932e-09
756 6 0.001 0.00252015 0 -0.0412783 -6.28958e-07 0 3.89841e-07 1.36476e-09 6.95403e-09
905 7 0.001 0.00748142 0 -0.0419139 6.70343e-07 0 3.87466e-08 3.78463e-08 5.62772e-09
906 7 0.001 0.00746787 0 -0.0412778 9.79832e-07 0 5.39715e-08 4.44164e-08 5.64183e-09
1055 8 0.001 0.0124457 0 -0.0419139 1.41981e-07 0 1.07922e-08 2.18502e-07 3.75303e-09
1056 8 0.001 0.012409 0 -0.0412785 1.97758e-07 0 1.77073e-08 2.23733e-07 3.76221e-09
1205 9 0.001 0.0174177 0 -0.0419147 1.25154e-08 0 1.47326e-08 4.56395e-07 2.84313e-09
1206 9 0.001 0.0173631 0 -0.0412804 2.2126e-08 0 1.93627e-08 4.49595e-07 2.83272e-09
1355 10 0.001 0.0224177 0 -0.0419147 -4.00787e-08 0 2.61662e-09 4.56808e-07 2.85055e-09
1356 10 0.001 0.0223631 0 -0.0412804 -6.42355e-08 0 3.02677e-09 4.50017e-07 2.84016e-09
7 1 0.001 -0.0220949 0 -0.0406796 -1.38618e-06 0 -1.48514e-07 1.60535e-06 2.10349e-08
8 1 0.001 -0.0219366 0 -0.0400647 -1.49187e-06 0 -1.81843e-07 1.50622e-06 2.06242e-08
9 1 0.001 -0.0217546 0 -0.0394564 -1.47897e-06 0 -2.45186e-07 1.39586e-06 2.01718e-08
157 2 0.001 -0.0171199 0 -0.0406774 1.64963e-06 0 -7.78422e-08 1.36653e-06 2.65036e-08
158 2 0.001 -0.016972 0 -0.0400602 1.81195e-06 0 -1.1485e-07 1.26489e-06 2.60278e-08
159 2 0.001 -0.0168023 0 -0.0394487 1.87009e-06 0 -1.23984e-07 1.15366e-06 2.55118e-08
307 3 0.001 -0.0121954 0 -0.0406678 -1.99528e-06 0 5.54896e-07 8.19985e-07 2.82296e-08
308 3 0.001 -0.0120777 0 -0.0400443 -2.23153e-06 0 6.37152e-07 7.4264e-07 2.78553e-08
309 3 0.001 -0.0119431 0 -0.0394241 -2.31291e-06 0 6.95895e-07 6.61089e-07 2.74635e-08
457 4 0.001 -0.00730714 0 -0.0406501 2.7239e-07 0 2.20724e-07 2.7089e-07 8.69185e-09
458 4 0.001 -0.00723459 0 -0.0400184 2.20625e-07 0 2.42416e-07 2.33289e-07 8.59097e-09
459 4 0.001 -0.00715243 0 -0.0393878 1.66136e-07 0 2.54685e-07 1.97135e-07 8.49449e-09
607 5 0.001 -0.00239777 0 -0.0406443 1.02745e-06 0 -1.69912e-07 5.82406e-08 7.32539e-09
608 5 0.001 -0.00236064 0 -0.0400094 1.01016e-06 0 -1.7809e-07 4.51382e-08 7.29338e-09
757 6 0.001 0.00252794 0 -0.0406422 -8.52845e-07 0 4.695e-07 4.32258e-10 6.95115e-09
758 6 0.001 0.0025359 0 -0.0400062 -1.0813e-06 0 5.33414e-07 5.70675e-10 6.95073e-09
907 7 0.001 0.0074501 0 -0.0406418 1.27145e-06 0 7.78377e-08 5.12714e-08 5.65657e-09
908 7 0.001 0.00742779 0 -0.040006 1.5243e-06 0 1.04407e-07 5.83416e-08 5.67178e-09
1057 8 0.001 0.0123628 0 -0.0406437 2.40871e-07 0 2.20058e-08 2.28063e-07 3.76983e-09
1058 8 0.001 0.0123071 0 -0.0400097 2.73291e-07 0 2.33273e-08 2.31457e-07 3.7758e-09
1207 9 0.001 0.0172951 0 -0.0406474 3.47049e-08 0 2.13473e-08 4.41197e-07 2.8199e-09
1208 9 0.001 0.0172138 0 -0.040016 4.91611e-08 0 2.63057e-08 4.31266e-07 2.80479e-09
1209 9 0.001 0.0171194 0 -0.0393864 6.58589e-08 0 3.5828e-08 4.19881e-07 2.78751e-09
1357 10 0.001 0.022295 0 -0.0406474 -8.71058e-08 0 2.56095e-09 4.41622e-07 2.82733e-09
1358 10 0.001 0.0222137 0 -0.040016 -1.01801e-07 0 3.01507e-09 4.3169e-07 2.8122e-09
1359 10 0.001 0.0221192 0 -0.0393865 -1.07837e-07 0 5.60876e-09 4.20298e-07 2.79489e-09
10 1 0.001 -0.0215499 0 -0.0388552 -1.37453e-06 0 -3.35551e-07 1.27659e-06 1.96887e-08
11 1 0.001 -0.021324 0 -0.0382617 -1.17885e-06 0 -4.42086e-07 1.1509e-06 1.91861e-08
160 2 0.001 -0.0166118 0 -0.0388433 1.79721e-06 0 -7.99669e-08 1.03545e-06 2.49689e-08
161 2 0.001 -0.016402 0 -0.0382442 1.62539e-06 0 1.01358e-08 9.12988e-07 2.44125e-08
310 3 0.001 -0.0117927 0 -0.0388077 -2.2434e-06 0 7.15713e-07 5.77263e-07 2.70638e-08
311 3 0.001 -0.0116275 0 -0.0381949 -2.0475e-06 0 7.23529e-07 4.93123e-07 2.66655e-08
460 4 0.001 -0.00706145 0 -0.0387585 1.19716e-07 0 2.54496e-07 1.62902e-07 8.40361e-09
461 4 0.001 -0.00696248 0 -0.0381303 7.74064e-08 0 2.45252e-07 1.31034e-07 8.31943e-09
609 5 0.001 -0.00231926 0 -0.0393747 8.92518e-07 0 -1.81615e-07 3.34942e-08 7.26502e-09
610 5 0.001 -0.00227425 0 -0.0387402 6.81169e-07 0 -1.75247e-07 2.34492e-08 7.24064e-09
611 5 0.001 -0.00222622 0 -0.038106 3.96542e-07 0 -1.47582e-07 1.51244e-08 7.22048e-09
759 6 0.001 0.00254357 0 -0.0393702 -1.25811e-06 0 5.98542e-07 1.77705e-09 6.95278e-09
760 6 0.001 0.00255048 0 -0.0387342 -1.35817e-06 0 6.45336e-07 4.03573e-09 6.95726e-09
761 6 0.001 0.00255617 0 -0.0380981 -1.39458e-06 0 6.72589e-07 7.31865e-09 6.96414e-09
909 7 0.001 0.00740064 0 -0.0393704 1.71217e-06 0 1.29745e-07 6.5555e-08 5.68732e-09
910 7 0.001 0.00736835 0 -0.038735 1.82159e-06 0 1.52768e-07 7.28378e-08 5.70302e-09
911 7 0.001 0.00733065 0 -0.0380999 1.85097e-06 0 1.67859e-07 8.01152e-08 5.71873e-09
1059 8 0.001 0.0122417 0 -0.0393766 2.91462e-07 0 2.35056e-08 2.33883e-07 3.78008e-09
1060 8 0.001 0.0121666 0 -0.0387446 2.88382e-07 0 2.21797e-08 2.35321e-07 3.78262e-09
1061 8 0.001 0.0120819 0 -0.0381138 2.62232e-07 0 1.96123e-08 2.35759e-07 3.78341e-09
1210 9 0.001 0.0170122 0 -0.0387589 8.53941e-08 0 4.41518e-08 4.07131e-07 2.76822e-09
1211 9 0.001 0.0168923 0 -0.0381337 1.05098e-07 0 4.97777e-08 3.93114e-07 2.74709e-09
1361 10 0.001 0.021892 0 -0.0381337 -8.86252e-08 0 5.87121e-09 3.93499e-07 2.75437e-09
1360 10 0.001 0.0220119 0 -0.0387589 -1.02752e-07 0 5.55623e-09 4.07535e-07 2.77555e-09
12 1 0.001 -0.0210781 0 -0.0376762 -9.31871e-07 0 -5.65647e-07 1.02137e-06 1.8675e-08
13 1 0.001 -0.0208136 0 -0.0370988 -7.10411e-07 0 -6.93256e-07 8.90586e-07 1.81661e-08
14 1 0.001 -0.020532 0 -0.0365295 -5.35166e-07 0 -7.89488e-07 7.61143e-07 1.76693e-08
162 2 0.001 -0.0161742 0 -0.0376517 1.39048e-06 0 1.36223e-07 7.89075e-07 2.38557e-08
163 2 0.001 -0.0159299 0 -0.0370658 1.08408e-06 0 2.98153e-07 6.66497e-07 2.33111e-08
164 2 0.001 -0.0156706 0 -0.0364864 7.09004e-07 0 4.79912e-07 5.47964e-07 2.27902e-08
312 3 0.001 -0.0114487 0 -0.037586 -1.74804e-06 0 6.95826e-07 4.10616e-07 2.62778e-08
313 3 0.001 -0.0112577 0 -0.0369808 -1.35545e-06 0 6.11763e-07 3.3163e-07 2.59092e-08
314 3 0.001 -0.0110557 0 -0.0363791 -8.99683e-07 0 4.95531e-07 2.57951e-07 2.55677e-08
462 4 0.001 -0.00685636 0 -0.0375033 6.34479e-08 0 2.23869e-07 1.0194e-07 8.24295e-09
463 4 0.001 -0.00674397 0 -0.0368774 7.43823e-08 0 1.96136e-07 7.59933e-08 8.17503e-09
612 5 0.001 -0.00217577 0 -0.037472 7.86327e-08 0 -1.19769e-07 8.62014e-09 7.20479e-09
613 5 0.001 -0.00212353 0 -0.0368381 -2.29219e-07 0 -8.47222e-08 4.01441e-09 7.19373e-09
762 6 0.001 0.00256018 0 -0.0374621 -1.33354e-06 0 6.91349e-07 1.15858e-08 6.97334e-09
763 6 0.001 0.00256206 0 -0.036826 -1.16929e-06 0 7.01894e-07 1.67861e-08 6.98476e-09
912 7 0.001 0.00728728 0 -0.0374652 1.79865e-06 0 1.76165e-07 8.73119e-08 5.73429e-09
913 7 0.001 0.00723798 0 -0.0368309 1.67784e-06 0 1.8485e-07 9.43524e-08 5.74954e-09
1062 8 0.001 0.0119875 0 -0.0374844 2.12058e-07 0 1.21799e-08 2.35192e-07 3.78243e-09
1063 8 0.001 0.0118835 0 -0.0368564 1.38295e-07 0 3.32598e-09 2.33625e-07 3.77968e-09
1212 9 0.001 0.0167601 0 -0.0375109 1.23969e-07 0 5.19435e-08 3.77938e-07 2.72431e-09
1213 9 0.001 0.0166158 0 -0.0368908 1.39298e-07 0 5.80245e-08 3.6172e-07 2.70007e-09
1362 10 0.001 0.0217597 0 -0.037511 -6.61884e-08 0 9.82012e-09 3.783e-07 2.73153e-09
1363 10 0.001 0.0216154 0 -0.0368909 -3.80727e-08 0 1.92446e-08 3.62054e-07 2.70722e-09
15 1 0.001 -0.0202348 0 -0.0359681 -4.28992e-07 0 -8.38116e-07 6.3554e-07 1.7194e-08
16 1 0.001 -0.0199236 0 -0.0354143 -4.02078e-07 0 -8.15029e-07 5.16167e-07 1.67484e-08
17 1 0.001 -0.0196 0 -0.0348677 -4.4403e-07 0 -7.31304e-07 4.05251e-07 1.63396e-08
165 2 0.001 -0.0153978 0 -0.0359132 2.85211e-07 0 6.69641e-07 4.36054e-07 2.23037e-08
166 2 0.001 -0.0151132 0 -0.0353457 -1.36549e-07 0 8.68922e-07 3.33163e-07 2.18609e-08
315 3 0.001 -0.0108442 0 -0.0357807 -4.29309e-07 0 3.52919e-07 1.91231e-07 2.52603e-08
316 3 0.001 -0.0106245 0 -0.0351853 -1.2934e-09 0 2.02565e-07 1.32955e-07 2.49933e-08
464 4 0.001 -0.00662617 0 -0.0362524 7.89594e-08 0 1.58705e-07 5.35226e-08 8.11644e-09
465 4 0.001 -0.00650386 0 -0.0356284 9.57631e-08 0 1.06396e-07 3.48115e-08 8.06783e-09
466 4 0.001 -0.00637795 0 -0.035005 1.00374e-07 0 5.60741e-08 2.00951e-08 8.02972e-09
614 5 0.001 -0.00207013 0 -0.0362043 -5.22729e-07 0 -4.52589e-08 1.36189e-09 7.18741e-09
615 5 0.001 -0.00201621 0 -0.0355706 -7.83709e-07 0 -5.91277e-09 6.93434e-10 7.1859e-09
616 5 0.001 -0.00196239 0 -0.0349368 -9.81156e-07 0 3.34515e-08 2.01579e-09 7.18921e-09
764 6 0.001 0.00256136 0 -0.03619 -9.11103e-07 0 6.97272e-07 2.28577e-08 6.99827e-09
765 6 0.001 0.00255765 0 -0.0355539 -5.92842e-07 0 6.93431e-07 2.97294e-08 7.01372e-09
766 6 0.001 0.00255048 0 -0.0349179 -2.35269e-07 0 6.8037e-07 3.73212e-08 7.03093e-09
914 7 0.001 0.00718254 0 -0.0361971 1.48806e-06 0 1.81381e-07 1.01163e-07 5.7643e-09
916 7 0.001 0.00705237 0 -0.0349314 9.36953e-07 0 1.46905e-07 1.13804e-07 5.79175e-09
915 7 0.001 0.00712074 0 -0.0355639 1.23595e-06 0 1.72729e-07 1.0767e-07 5.77843e-09
1064 8 0.001 0.0117699 0 -0.0362302 4.6701e-08 0 -1.40912e-08 2.3107e-07 3.7752e-09
1066 8 0.001 0.0115144 0 -0.0349832 -1.55734e-07 0 -5.92415e-08 2.23094e-07 3.7612e-09
1065 8 0.001 0.0116469 0 -0.0356057 -5.54045e-08 0 -3.42979e-08 2.2755e-07 3.76902e-09
1214 9 0.001 0.0164597 0 -0.0362736 1.51291e-07 0 6.44638e-08 3.44584e-07 2.67458e-09
1215 9 0.001 0.0162923 0 -0.0356594 1.58781e-07 0 7.20721e-08 3.26659e-07 2.64805e-09
1216 9 0.001 0.0161138 0 -0.0350483 1.61917e-07 0 7.36495e-08 3.0808e-07 2.62069e-09
1364 10 0.001 0.0214593 0 -0.0362737 -5.3763e-09 0 2.78549e-08 3.44885e-07 2.68164e-09
1365 10 0.001 0.0212918 0 -0.0356595 2.89833e-08 0 4.11407e-08 3.26925e-07 2.65502e-09
1366 10 0.001 0.0211132 0 -0.0350484 6.59174e-08 0 5.16252e-08 3.08307e-07 2.62756e-09
18 1 0.001 -0.0192654 0 -0.0343277 -5.36391e-07 0 -6.20084e-07 3.04827e-07 1.59739e-08
19 1 0.001 -0.0189216 0 -0.0337935 -6.56092e-07 0 -4.92794e-07 2.16705e-07 1.56565e-08
167 2 0.001 -0.0148183 0 -0.0347834 -5.4128e-07 0 1.08964e-06 2.41458e-07 2.14698e-08
168 2 0.001 -0.0145148 0 -0.0342257 -8.8733e-07 0 1.28616e-06 1.62843e-07 2.11371e-08
169 2 0.001 -0.0142043 0 -0.0336718 -1.16472e-06 0 1.42349e-06 9.89231e-08 2.08683e-08
317 3 0.001 -0.010398 0 -0.0345924 3.43356e-07 0 9.87193e-08 8.44069e-08 2.47718e-08
318 3 0.001 -0.0101662 0 -0.0340015 6.14153e-07 0 2.58739e-08 4.66547e-08 2.46e-08
319 3 0.001 -0.00993053 0 -0.0334121 8.10843e-07 0 -2.10828e-08 2.05242e-08 2.44811e-08
467 4 0.001 -0.00624935 0 -0.0343822 5.39195e-08 0 3.06646e-09 9.55765e-09 8.00253e-09
468 4 0.001 -0.00611898 0 -0.0337597 -3.46696e-08 0 -3.98552e-08 3.33066e-09 7.98656e-09
617 5 0.001 -0.0019093 0 -0.034303 -1.10895e-06 0 6.28732e-08 5.31168e-09 7.1973e-09
618 5 0.001 -0.00185758 0 -0.033669 -1.14418e-06 0 9.14866e-08 1.05402e-08 7.21006e-09
767 6 0.001 0.00253945 0 -0.0342819 9.62132e-08 0 6.6075e-07 4.5545e-08 7.04971e-09
768 6 0.001 0.00252415 0 -0.0336461 3.77567e-07 0 6.42009e-07 5.43058e-08 7.06986e-09
918 7 0.001 0.00689528 0 -0.0336688 2.77233e-07 0 8.48442e-08 1.24689e-07 5.81543e-09
917 7 0.001 0.00697727 0 -0.0342997 6.15663e-07 0 1.16315e-07 1.19497e-07 5.80414e-09
1067 8 0.001 0.0113726 0 -0.0343627 -2.41599e-07 0 -7.72289e-08 2.17741e-07 3.75181e-09
1068 8 0.001 0.0112218 0 -0.0337444 -2.99866e-07 0 -8.31781e-08 2.11536e-07 3.74093e-09
1218 9 0.001 0.0157251 0 -0.0338358 1.44366e-07 0 7.9858e-08 2.69515e-07 2.56435e-09
1217 9 0.001 0.0159246 0 -0.0344404 1.5754e-07 0 7.65136e-08 2.88985e-07 2.59272e-09
1367 10 0.001 0.0209239 0 -0.0344406 1.00787e-07 0 6.29962e-08 2.89173e-07 2.59949e-09
1368 10 0.001 0.0207243 0 -0.033836 1.30607e-07 0 7.63325e-08 2.69663e-07 2.57103e-09
20 1 0.001 -0.01857 0 -0.0332643 -7.4724e-07 0 -3.86149e-07 1.4245e-07 1.53918e-08
21 1 0.001 -0.0182123 0 -0.0327393 -8.27299e-07 0 -2.88236e-07 8.33616e-08 1.5183e-08
22 1 0.001 -0.0178499 0 -0.0322174 -8.57616e-07 0 -2.07049e-07 4.04616e-08 1.50327e-08
170 2 0.001 -0.0138885 0 -0.033121 -1.32249e-06 0 1.48472e-06 5.099e-08 2.06674e-08
171 2 0.001 -0.013569 0 -0.0325723 -1.32016e-06 0 1.47059e-06 1.99987e-08 2.05376e-08
172 2 0.001 -0.0132474 0 -0.0320247 -1.16608e-06 0 1.37872e-06 6.55868e-09 2.04805e-08
320 3 0.001 -0.00969249 0 -0.0328237 8.96411e-07 0 -1.91293e-08 6.58709e-09 2.44174e-08
321 3 0.001 -0.00945355 0 -0.0322357 9.04351e-07 0 6.11846e-09 5.14939e-09 2.44099e-08
469 4 0.001 -0.00598776 0 -0.0331375 -1.84224e-07 0 -7.38836e-08 1.49174e-09 7.98196e-09
470 4 0.001 -0.00585662 0 -0.0325152 -3.7928e-07 0 -9.04052e-08 4.06344e-09 7.98878e-09
471 4 0.001 -0.00572649 0 -0.0318927 -5.99886e-07 0 -9.05846e-08 1.10129e-08 8.00694e-09
619 5 0.001 -0.00180786 0 -0.033035 -1.10109e-06 0 1.28347e-07 1.76375e-08 7.22735e-09
620 5 0.001 -0.00176075 0 -0.0324007 -9.82461e-07 0 1.53518e-07 2.65177e-08 7.24894e-09
769 6 0.001 0.00250417 0 -0.0330103 5.95614e-07 0 6.13236e-07 6.35025e-08 7.09114e-09
770 6 0.001 0.00247914 0 -0.0323748 7.37798e-07 0 5.7992e-07 7.30286e-08 7.11332e-09
919 7 0.001 0.00680626 0 -0.0330388 -5.22827e-08 0 4.56986e-08 1.29319e-07 5.8255e-09
920 7 0.001 0.00671009 0 -0.0324099 -3.57939e-07 0 1.16088e-08 1.33337e-07 5.83422e-09
1069 8 0.001 0.0110619 0 -0.0331283 -3.21585e-07 0 -9.04139e-08 2.04533e-07 3.72866e-09
1070 8 0.001 0.0108933 0 -0.0325146 -3.08426e-07 0 -8.86339e-08 1.96793e-07 3.71512e-09
1071 8 0.001 0.0107161 0 -0.0319033 -2.62656e-07 0 -7.11863e-08 1.88384e-07 3.70043e-09
1219 9 0.001 0.0155157 0 -0.0332345 1.28741e-07 0 7.18866e-08 2.49813e-07 2.53581e-09
1220 9 0.001 0.0152969 0 -0.0326367 1.08549e-07 0 6.29702e-08 2.30023e-07 2.5073e-09
1221 9 0.001 0.0150691 0 -0.0320422 8.28891e-08 0 5.98669e-08 2.10286e-07 2.47903e-09
1371 10 0.001 0.020068 0 -0.0320425 1.9482e-07 0 1.01188e-07 2.10322e-07 2.48543e-09
1370 10 0.001 0.020296 0 -0.0326369 1.80041e-07 0 8.85552e-08 2.30094e-07 2.51379e-09
1369 10 0.001 0.0205149 0 -0.0332348 1.58276e-07 0 8.15216e-08 2.49922e-07 2.54239e-09
23 1 0.001 -0.0174844 0 -0.0316977 -8.0373e-07 0 -1.75356e-07 1.4484e-08 1.49425e-08
24 1 0.001 -0.0171175 0 -0.031179 -6.92908e-07 0 -1.91258e-07 5.8692e-09 1.49135e-08
25 1 0.001 -0.0167505 0 -0.0306603 -5.35709e-07 0 -2.53283e-07 1.4761e-08 1.4946e-08
173 2 0.001 -0.0129254 0 -0.0314775 -8.72073e-07 0 1.1912e-06 1.09279e-08 2.0497e-08
174 2 0.001 -0.0126047 0 -0.0309295 -4.69855e-07 0 9.64885e-07 3.30112e-08 2.05867e-08
175 2 0.001 -0.0122868 0 -0.0303798 1.23665e-08 0 7.18508e-07 7.23632e-08 2.07482e-08
322 3 0.001 -0.00921517 0 -0.0316474 8.3793e-07 0 4.6805e-08 1.62461e-08 2.4459e-08
323 3 0.001 -0.00897884 0 -0.0310583 7.34553e-07 0 1.22338e-07 3.96399e-08 2.45635e-08
324 3 0.001 -0.00874603 0 -0.0304678 5.78828e-07 0 2.21673e-07 7.48244e-08 2.47217e-08
472 4 0.001 -0.00559827 0 -0.0312698 -8.01933e-07 0 -8.00104e-08 2.2252e-08 8.03622e-09
473 4 0.001 -0.0054729 0 -0.0306463 -9.52188e-07 0 -9.06932e-08 3.76383e-08 8.07632e-09
621 5 0.001 -0.00171686 0 -0.0317662 -8.18667e-07 0 1.76956e-07 3.70739e-08 7.27462e-09
622 5 0.001 -0.0016768 0 -0.0311314 -6.22389e-07 0 1.91193e-07 4.91798e-08 7.30409e-09
623 5 0.001 -0.00164117 0 -0.0304964 -4.13155e-07 0 2.1826e-07 6.26906e-08 7.33701e-09
771 6 0.001 0.0024487 0 -0.0317395 8.06956e-07 0 5.55305e-07 8.27732e-08 7.13612e-09
773 6 0.001 0.00237018 0 -0.0304698 7.64928e-07 0 4.80714e-07 1.02461e-07 7.1825e-09
772 6 0.001 0.00241249 0 -0.0311045 8.09479e-07 0 5.25179e-07 9.26226e-08 7.15927e-09
921 7 0.001 0.00660667 0 -0.0317822 -6.12681e-07 0 -1.56205e-08 1.36698e-07 5.84148e-09
922 7 0.001 0.00649593 0 -0.0311557 -7.92136e-07 0 -4.4318e-08 1.39362e-07 5.84719e-09
923 7 0.001 0.0063778 0 -0.0305306 -8.85874e-07 0 -6.14595e-08 1.41301e-07 5.8513e-09
1072 8 0.001 0.0105305 0 -0.0312945 -1.877e-07 0 -4.59298e-08 1.79379e-07 3.68472e-09
1073 8 0.001 0.0103368 0 -0.0306882 -9.63042e-08 0 -1.92454e-08 1.69857e-07 3.66814e-09
1222 9 0.001 0.0148326 0 -0.031451 5.49335e-08 0 5.28035e-08 1.90744e-07 2.45119e-09
1223 9 0.001 0.0145881 0 -0.0308632 2.75121e-08 0 3.84322e-08 1.71536e-07 2.42398e-09
1372 10 0.001 0.0198315 0 -0.0314513 2.05222e-07 0 1.08027e-07 1.90748e-07 2.45752e-09
1373 10 0.001 0.0195868 0 -0.0308635 2.07395e-07 0 1.05571e-07 1.71511e-07 2.43024e-09
26 1 0.001 -0.0163851 0 -0.0301406 -3.67167e-07 0 -3.32092e-07 4.10063e-08 1.50396e-08
27 1 0.001 -0.0160228 0 -0.0296187 -1.83668e-07 0 -4.27228e-07 8.41564e-08 1.51935e-08
28 1 0.001 -0.0156651 0 -0.0290936 -9.03681e-09 0 -5.0497e-07 1.43471e-07 1.54057e-08
176 2 0.001 -0.0119734 0 -0.0298276 5.02714e-07 0 4.83141e-07 1.28194e-07 2.0979e-08
177 2 0.001 -0.0116661 0 -0.029272 9.17724e-07 0 2.74442e-07 1.9938e-07 2.12755e-08
325 3 0.001 -0.0085182 0 -0.0298754 3.90036e-07 0 3.33282e-07 1.21032e-07 2.49305e-08
326 3 0.001 -0.0082968 0 -0.0292806 1.88823e-07 0 4.53741e-07 1.77249e-07 2.51859e-08
474 4 0.001 -0.00535128 0 -0.0300221 -1.00412e-06 0 -9.87271e-08 5.69766e-08 8.12679e-09
475 4 0.001 -0.00523431 0 -0.029397 -9.26438e-07 0 -1.09732e-07 8.00213e-08 8.18705e-09
624 5 0.001 -0.00161054 0 -0.0298611 -2.15457e-07 0 2.49696e-07 7.74449e-08 7.37301e-09
625 5 0.001 -0.00158548 0 -0.0292256 -3.95478e-08 0 2.81247e-07 9.32662e-08 7.41167e-09
775 6 0.001 0.00226604 0 -0.029202 5.69299e-07 0 3.65639e-07 1.21641e-07 7.22811e-09
774 6 0.001 0.00232146 0 -0.0298357 6.82918e-07 0 4.24141e-07 1.12172e-07 7.20554e-09
924 7 0.001 0.00625226 0 -0.0299069 -8.88832e-07 0 -5.45566e-08 1.42492e-07 5.85374e-09
925 7 0.001 0.00611929 0 -0.0292848 -8.06219e-07 0 -3.27353e-08 1.42922e-07 5.85449e-09
1076 8 0.001 0.00970956 0 -0.0288848 1.37397e-07 0 6.13672e-08 1.39029e-07 3.61474e-09
1075 8 0.001 0.00992607 0 -0.0294833 7.96734e-08 0 4.12752e-08 1.49594e-07 3.633e-09
1074 8 0.001 0.0101352 0 -0.0300845 -3.25651e-09 0 1.2711e-08 1.599e-07 3.65085e-09
1224 9 0.001 0.0143358 0 -0.0302786 -2.20948e-09 0 2.66081e-08 1.52796e-07 2.39759e-09
1226 9 0.001 0.0138103 0 -0.0291187 -5.7907e-08 0 5.35083e-09 1.17242e-07 2.34789e-09
1225 9 0.001 0.0140764 0 -0.0296971 -3.12418e-08 0 1.53833e-08 1.34657e-07 2.37217e-09
1376 10 0.001 0.0188088 0 -0.0291192 1.5661e-07 0 7.78573e-08 1.17156e-07 2.35401e-09
1374 10 0.001 0.0193345 0 -0.030279 2.00222e-07 0 1.01537e-07 1.52747e-07 2.40378e-09
1375 10 0.001 0.019075 0 -0.0296976 1.83324e-07 0 9.09528e-08 1.34587e-07 2.37832e-09
29 1 0.001 -0.0153136 0 -0.0285643 1.44252e-07 0 -5.48393e-07 2.17924e-07 1.56739e-08
30 1 0.001 -0.0149699 0 -0.0280301 2.54349e-07 0 -5.73864e-07 3.06214e-07 1.59947e-08
31 1 0.001 -0.0146356 0 -0.0274899 2.92124e-07 0 -5.64131e-07 4.06775e-07 1.63638e-08
178 2 0.001 -0.0113666 0 -0.0287121 1.24225e-06 0 1.22069e-07 2.84476e-07 2.1633e-08
179 2 0.001 -0.0110765 0 -0.0281474 1.41346e-06 0 4.20826e-08 3.81739e-07 2.20456e-08
180 2 0.001 -0.0107975 0 -0.0275771 1.37542e-06 0 4.05353e-08 4.89147e-07 2.2506e-08
327 3 0.001 -0.00808327 0 -0.0286829 1.31765e-08 0 5.6318e-07 2.4223e-07 2.54827e-08
328 3 0.001 -0.007879 0 -0.028082 -1.23383e-07 0 6.62525e-07 3.14525e-07 2.58151e-08
329 3 0.001 -0.00768538 0 -0.0274776 -2.08002e-07 0 7.52025e-07 3.92506e-07 2.6176e-08
476 4 0.001 -0.00512289 0 -0.0287709 -7.01367e-07 0 -1.40609e-07 1.06479e-07 8.25642e-09
477 4 0.001 -0.0050179 0 -0.0281437 -3.43016e-07 0 -1.82991e-07 1.36014e-07 8.33412e-09
478 4 0.001 -0.00492019 0 -0.0275154 9.32715e-08 0 -2.34557e-07 1.6825e-07 8.41927e-09
626 5 0.001 -0.00156654 0 -0.0285898 1.20443e-07 0 3.10655e-07 1.09965e-07 7.45255e-09
627 5 0.001 -0.00155424 0 -0.0279539 2.66411e-07 0 3.52964e-07 1.2734e-07 7.49516e-09
628 5 0.001 -0.0015491 0 -0.027318 3.81714e-07 0 4.04183e-07 1.45183e-07 7.53899e-09
776 6 0.001 0.00220364 0 -0.0285691 4.34886e-07 0 3.04382e-07 1.30755e-07 7.24994e-09
777 6 0.001 0.00213402 0 -0.0279369 2.80433e-07 0 2.46288e-07 1.39403e-07 7.27073e-09
778 6 0.001 0.00205695 0 -0.0273055 1.11895e-07 0 1.96894e-07 1.47482e-07 7.29022e-09
926 7 0.001 0.00597891 0 -0.0286643 -6.55882e-07 0 -1.54544e-09 1.42587e-07 5.85355e-09
928 7 0.001 0.005676 0 -0.0274285 -2.43676e-07 0 9.6036e-08 1.39652e-07 5.84668e-09
927 7 0.001 0.00583113 0 -0.0280455 -4.61716e-07 0 4.32226e-08 1.41493e-07 5.85094e-09
1077 8 0.001 0.00948602 0 -0.0282889 1.57884e-07 0 7.15267e-08 1.28295e-07 3.59624e-09
1078 8 0.001 0.00925576 0 -0.0276955 1.38009e-07 0 5.71754e-08 1.17482e-07 3.57766e-09
1227 9 0.001 0.0135379 0 -0.0285432 -8.18083e-08 0 -8.54131e-11 1.00673e-07 2.3249e-09
1228 9 0.001 0.0132598 0 -0.0279704 -9.5948e-08 0 -1.13134e-08 8.50614e-08 2.30335e-09
1229 9 0.001 0.0129765 0 -0.0274002 -1.05877e-07 0 -1.73649e-08 7.05147e-08 2.28335e-09
1377 10 0.001 0.0185364 0 -0.0285437 1.21444e-07 0 6.89369e-08 1.00575e-07 2.331e-09
1379 10 0.001 0.0179748 0 -0.0274009 5.05832e-08 0 3.67398e-08 7.04057e-08 2.28941e-09
1378 10 0.001 0.0182582 0 -0.027971 8.60399e-08 0 5.27307e-08 8.49563e-08 2.30942e-09
32 1 0.001 -0.0143121 0 -0.0269432 2.81945e-07 0 -5.20289e-07 5.17797e-07 1.67761e-08
33 1 0.001 -0.0140011 0 -0.0263893 2.41151e-07 0 -4.45228e-07 6.37242e-07 1.72253e-08
34 1 0.001 -0.0137042 0 -0.0258278 1.50437e-07 0 -3.30702e-07 7.62881e-07 1.77041e-08
181 2 0.001 -0.0105311 0 -0.0270009 1.145e-06 0 1.4168e-07 6.04433e-07 2.30057e-08
182 2 0.001 -0.0102788 0 -0.0264183 7.47733e-07 0 3.09292e-07 7.25122e-07 2.35349e-08
183 2 0.001 -0.0100424 0 -0.0258293 1.96482e-07 0 5.14946e-07 8.48576e-07 2.40825e-08
330 3 0.001 -0.00750373 0 -0.0268695 -1.91909e-07 0 7.88251e-07 4.74398e-07 2.65576e-08
331 3 0.001 -0.00733534 0 -0.0262577 -8.3904e-08 0 7.77468e-07 5.58322e-07 2.69515e-08
479 4 0.001 -0.00483061 0 -0.0268858 5.40876e-07 0 -2.69974e-07 2.02774e-07 8.51088e-09
480 4 0.001 -0.00474997 0 -0.026255 9.37287e-07 0 -2.88641e-07 2.39142e-07 8.60786e-09
629 5 0.001 -0.00155161 0 -0.026682 4.53093e-07 0 4.38194e-07 1.63276e-07 7.58351e-09
630 5 0.001 -0.00156223 0 -0.0260461 4.79603e-07 0 4.74599e-07 1.814e-07 7.6282e-09
779 6 0.001 0.00197222 0 -0.0266752 -5.68983e-08 0 1.41914e-07 1.54893e-07 7.30814e-09
780 6 0.001 0.00187967 0 -0.0260459 -1.99121e-07 0 8.9392e-08 1.61547e-07 7.32428e-09
930 7 0.001 0.00534403 0 -0.0262002 1.8022e-07 0 1.99074e-07 1.33825e-07 5.83347e-09
929 7 0.001 0.00551361 0 -0.0268134 -2.30827e-08 0 1.48551e-07 1.37087e-07 5.84083e-09
1079 8 0.001 0.0090191 0 -0.0271046 6.71328e-08 0 2.60452e-08 1.06682e-07 3.55915e-09
1081 8 0.001 0.00852786 0 -0.0259302 -1.87866e-07 0 -7.74854e-08 8.54811e-08 3.52296e-09
1080 8 0.001 0.00877635 0 -0.0265162 -4.75487e-08 0 -1.81889e-08 9.59855e-08 3.54087e-09
1231 9 0.001 0.012396 0 -0.0262668 -1.07224e-07 0 -1.62072e-08 4.49991e-08 2.24847e-09
1230 9 0.001 0.0126884 0 -0.0268324 -1.1081e-07 0 -1.67968e-08 5.71307e-08 2.26502e-09
1381 10 0.001 0.0173942 0 -0.0262675 -1.42742e-08 0 3.08692e-09 4.48926e-08 2.25453e-09
1380 10 0.001 0.0176866 0 -0.0268331 1.60201e-08 0 2.1325e-08 5.70213e-08 2.27108e-09
35 1 0.001 -0.0134228 0 -0.0252584 6.70797e-08 0 -2.02511e-07 8.92318e-07 1.8204e-08
36 1 0.001 -0.0131586 0 -0.0246809 3.77136e-08 0 -9.72572e-08 1.02304e-06 1.87158e-08
184 2 0.001 -0.00982317 0 -0.0252336 -4.36018e-07 0 7.11761e-07 9.7205e-07 2.46367e-08
185 2 0.001 -0.00962261 0 -0.0246314 -1.06899e-06 0 8.75467e-07 1.09275e-06 2.51844e-08
332 3 0.001 -0.00718143 0 -0.025642 9.78402e-08 0 7.4714e-07 6.42333e-07 2.73486e-08
333 3 0.001 -0.00704315 0 -0.0250227 3.11443e-07 0 7.06281e-07 7.24465e-07 2.77396e-08
334 3 0.001 -0.00692158 0 -0.0243999 5.33105e-07 0 6.61074e-07 8.02778e-07 2.81149e-08
481 4 0.001 -0.00467907 0 -0.0256231 1.25044e-06 0 -2.82601e-07 2.76886e-07 8.70905e-09
482 4 0.001 -0.00461867 0 -0.0249901 1.43097e-06 0 -2.63823e-07 3.15511e-07 8.81318e-09
483 4 0.001 -0.00456949 0 -0.0243561 1.45165e-06 0 -2.31849e-07 3.54508e-07 8.91892e-09
631 5 0.001 -0.0015814 0 -0.0254103 4.71408e-07 0 5.09125e-07 1.99333e-07 7.67248e-09
632 5 0.001 -0.00160953 0 -0.024775 4.5953e-07 0 5.2413e-07 2.16854e-07 7.71583e-09
781 6 0.001 0.00177913 0 -0.0254179 -3.25207e-07 0 3.01606e-08 1.67361e-07 7.33841e-09
782 6 0.001 0.00167049 0 -0.0247912 -4.21082e-07 0 -3.38842e-08 1.72266e-07 7.35038e-09
931 7 0.001 0.00516738 0 -0.025589 3.63097e-07 0 2.36192e-07 1.29904e-07 5.82469e-09
932 7 0.001 0.00498378 0 -0.0249799 5.19584e-07 0 2.66039e-07 1.25368e-07 5.8146e-09
933 7 0.001 0.00479337 0 -0.0243729 6.39787e-07 0 2.91814e-07 1.20265e-07 5.8033e-09
1082 8 0.001 0.00827398 0 -0.0253466 -3.35864e-07 0 -1.44725e-07 7.52561e-08 3.50557e-09
1083 8 0.001 0.00801506 0 -0.0247651 -4.75239e-07 0 -2.07796e-07 6.5395e-08 3.48884e-09
1232 9 0.001 0.0120999 0 -0.0257031 -9.61541e-08 0 -1.22325e-08 3.42011e-08 2.23378e-09
1233 9 0.001 0.0118005 0 -0.0251412 -8.07836e-08 0 -3.27015e-09 2.48085e-08 2.22104e-09
1234 9 0.001 0.0114983 0 -0.0245807 -6.26303e-08 0 7.54626e-09 1.68835e-08 2.21032e-09
1382 10 0.001 0.017098 0 -0.0257039 -4.17665e-08 0 -1.12749e-08 3.41005e-08 2.23986e-09
1384 10 0.001 0.0164963 0 -0.0245815 -8.15197e-08 0 -2.8168e-08 1.68028e-08 2.21643e-09
1383 10 0.001 0.0167985 0 -0.025142 -6.59367e-08 0 -2.08756e-08 2.47165e-08 2.22713e-09
37 1 0.001 -0.0129129 0 -0.0240952 7.49974e-08 0 -1.95752e-08 1.15245e-06 1.92293e-08
38 1 0.001 -0.0126873 0 -0.0235016 1.69738e-07 0 3.2189e-08 1.27794e-06 1.97336e-08
39 1 0.001 -0.012483 0 -0.0229004 3.02259e-07 0 7.76559e-08 1.39694e-06 2.02177e-08
186 2 0.001 -0.00944205 0 -0.0240229 -1.5991e-06 0 9.76114e-07 1.20789e-06 2.57126e-08
187 2 0.001 -0.00928274 0 -0.0234086 -2.00664e-06 0 9.78775e-07 1.31478e-06 2.62077e-08
188 2 0.001 -0.00914579 0 -0.0227889 -2.25075e-06 0 9.25726e-07 1.41089e-06 2.66569e-08
335 3 0.001 -0.00681769 0 -0.023774 7.61645e-07 0 6.12119e-07 8.75404e-07 2.8465e-08
336 3 0.001 -0.00673236 0 -0.0231453 9.68121e-07 0 5.61198e-07 9.40599e-07 2.87811e-08
484 4 0.001 -0.00453225 0 -0.0237214 1.30193e-06 0 -2.09012e-07 3.93358e-07 9.02489e-09
485 4 0.001 -0.00450757 0 -0.023086 9.70253e-07 0 -1.76324e-07 4.31535e-07 9.12966e-09