ITEM: TIMESTEP
500000
ITEM: NUMBER OF ATOMS
1500
ITEM: BOX BOUNDS ff ff ff
-2.5000000000000001e-02 2.5000000000000001e-02
-5.0000000000000001e-03 5.0000000000000001e-03
-5.0000000000000003e-02 5.0000000000000003e-02
ITEM: ATOMS id type radius x y z fx fy fz c_bendingE c_stretchingE
1 1 0.001 -0.0225 0 -0.04655 -0.0652377 0 -3.8e-09 1.43646e-07 1.59293e-34
2 1 0.001 -0.0225 0 -0.0459124 0.0654324 0 -0.0155429 2.85035e-07 1.00184e-08
151 2 0.001 -0.0175 0 -0.04655 -0.0455883 0 -3.8e-09 7.01423e-08 1.59293e-34
152 2 0.001 -0.0175 0 -0.0459124 0.0465623 0 -0.0140854 1.3672e-07 8.21713e-09
301 3 0.001 -0.0125 0 -0.04655 -0.00886939 0 -3.8e-09 2.65485e-09 1.59293e-34
302 3 0.001 -0.0125 0 -0.0459124 0.00824112 0 -0.0117757 5.67674e-09 5.75766e-09
451 4 0.001 -0.0075 0 -0.04655 -0.00434831 0 -3.8e-09 6.38104e-10 1.59293e-34
452 4 0.001 -0.0075 0 -0.0459124 0.00598378 0 -0.00804387 8.85071e-10 2.6843e-09
601 5 0.001 -0.0025 0 -0.04655 0.0393789 0 -3.8e-09 5.23353e-08 1.59293e-34
602 5 0.001 -0.0025 0 -0.0459124 -0.0402896 0 -0.00534362 1.02108e-07 1.18004e-09
751 6 0.001 0.0025 0 -0.04655 0.0239668 0 -3.8e-09 1.93854e-08 1.59293e-34
752 6 0.001 0.0025 0 -0.0459124 -0.0226541 0 -0.00968213 4.08217e-08 3.89904e-09
901 7 0.001 0.0075 0 -0.04655 0.032102 0 -3.8e-09 3.47797e-08 1.59293e-34
902 7 0.001 0.0075 0 -0.0459124 -0.0314259 0 -0.00323331 7.09655e-08 4.35757e-10
1051 8 0.001 0.0125 0 -0.04655 0.0411033 0 -3.8e-09 5.70195e-08 1.59293e-34
1052 8 0.001 0.0125 0 -0.0459124 -0.0416289 0 -0.00728164 1.12333e-07 2.1964e-09
1201 9 0.001 0.0175 0 -0.04655 0.0297401 0 -3.8e-09 2.985e-08 1.59293e-34
1202 9 0.001 0.0175 0 -0.0459124 -0.0292254 0 -0.00717947 6.06019e-08 2.14229e-09
1351 10 0.001 0.0225 0 -0.04655 0.0408859 0 -3.8e-09 5.64178e-08 1.59293e-34
1352 10 0.001 0.0225 0 -0.0459124 -0.0414266 0 -0.00643947 1.11129e-07 1.71722e-09
3 1 0.001 -0.0224868 0 -0.0452775 1.19939e-05 0 2.28494e-05 4.22762e-07 1.99888e-08
4 1 0.001 -0.0224606 0 -0.0446431 2.50227e-05 0 4.21187e-05 4.11806e-07 1.98587e-08
5 1 0.001 -0.0224216 0 -0.0440093 3.86198e-05 0 5.93371e-05 3.96758e-07 1.96629e-08
153 2 0.001 -0.0174908 0 -0.0452772 -4.12687e-06 0 1.83667e-05 1.99263e-07 1.6392e-08
154 2 0.001 -0.0174726 0 -0.0446422 -6.83031e-06 0 3.34665e-05 1.87243e-07 1.62878e-08
155 2 0.001 -0.0174458 0 -0.0440075 -7.00898e-06 0 4.53647e-05 1.74061e-07 1.61489e-08
303 3 0.001 -0.0124982 0 -0.0452768 2.02727e-05 0 -1.53322e-06 9.05187e-09 1.15184e-08
304 3 0.001 -0.0124945 0 -0.0446412 5.49942e-05 0 -4.3188e-06 1.00797e-08 1.15269e-08
305 3 0.001 -0.0124888 0 -0.0440056 9.97576e-05 0 -7.08888e-06 1.09603e-08 1.15394e-08
453 4 0.001 -0.00749912 0 -0.0452762 -2.99092e-05 0 -1.88693e-05 9.24796e-10 5.3803e-09
454 4 0.001 -0.0074977 0 -0.0446399 -7.68236e-05 0 -3.68286e-05 2.93881e-10 5.41647e-09
455 4 0.001 -0.00749605 0 -0.0440037 -0.000121748 0 -5.19699e-05 1.66902e-10 5.47632e-09
603 5 0.001 -0.00250796 0 -0.0452758 1.05912e-05 0 1.43826e-05 1.49246e-07 2.3484e-09
604 5 0.001 -0.00252369 0 -0.0446393 2.69389e-05 0 3.00412e-05 1.41401e-07 2.31845e-09
605 5 0.001 -0.00254697 0 -0.044003 4.54494e-05 0 4.59638e-05 1.33516e-07 2.27568e-09
753 6 0.001 0.00249516 0 -0.0452765 -1.78274e-05 0 2.39536e-05 6.42429e-08 7.78632e-09
754 6 0.001 0.00248523 0 -0.0446406 -4.47392e-05 0 4.60915e-05 7.01215e-08 7.74414e-09
755 6 0.001 0.00246998 0 -0.0440048 -7.20959e-05 0 6.63704e-05 7.55692e-08 7.66568e-09
903 7 0.001 0.00749351 0 -0.0452754 1.69893e-06 0 1.86311e-06 1.08514e-07 8.72774e-10
904 7 0.001 0.00748039 0 -0.0446385 -1.15083e-07 0 4.36972e-06 1.1259e-07 8.74552e-10
905 7 0.001 0.00746052 0 -0.0440018 -6.83054e-06 0 6.36011e-06 1.16495e-07 8.74905e-10
1053 8 0.001 0.0124917 0 -0.0452761 5.33304e-06 0 1.65676e-06 1.65731e-07 4.3867e-09
1054 8 0.001 0.0124752 0 -0.0446399 1.47676e-05 0 3.73716e-06 1.60024e-07 4.37296e-09
1055 8 0.001 0.0124507 0 -0.044004 2.6373e-05 0 5.62769e-06 1.53818e-07 4.35655e-09
1203 9 0.001 0.017494 0 -0.0452761 -6.54207e-07 0 1.66536e-07 9.21258e-08 4.28684e-09
1204 9 0.001 0.0174819 0 -0.0446398 -1.91634e-06 0 7.23912e-07 9.44321e-08 4.2906e-09
1205 9 0.001 0.0174636 0 -0.0440037 -3.45892e-06 0 1.22647e-06 9.632e-08 4.29289e-09
1353 10 0.001 0.0224917 0 -0.045276 8.4104e-07 0 5.3387e-08 1.63942e-07 3.42988e-09
1354 10 0.001 0.0224753 0 -0.0446396 2.86018e-06 0 3.98297e-07 1.58269e-07 3.42017e-09
1355 10 0.001 0.0224509 0 -0.0440036 6.36848e-06 0 1.18042e-09 1.52092e-07 3.4098e-09
6 1 0.001 -0.0223699 0 -0.0433763 4.96859e-05 0 7.78795e-05 3.77821e-07 1.94032e-08
7 1 0.001 -0.0223059 0 -0.0427445 5.6525e-05 0 9.74658e-05 3.55325e-07 1.90793e-08
156 2 0.001 -0.0174106 0 -0.0433732 -1.08289e-05 0 5.94144e-05 1.59978e-07 1.5978e-08
157 2 0.001 -0.0173674 0 -0.0427394 -2.16003e-05 0 7.14649e-05 1.45283e-07 1.57776e-08
306 3 0.001 -0.012481 0 -0.04337 0.000143239 0 -8.70152e-06 1.15783e-08 1.15538e-08
307 3 0.001 -0.012471 0 -0.0427344 0.000172625 0 -7.52619e-06 1.18242e-08 1.15656e-08
456 4 0.001 -0.0074945 0 -0.0433675 -0.000149832 0 -6.54155e-05 4.63207e-10 5.55692e-09
457 4 0.001 -0.00749333 0 -0.0427312 -0.000157692 0 -7.68767e-05 1.06846e-09 5.65577e-09
606 5 0.001 -0.00257759 0 -0.043367 6.66086e-05 0 6.18367e-05 1.25768e-07 2.22104e-09
607 5 0.001 -0.00261532 0 -0.0427314 8.77299e-05 0 7.69559e-05 1.1833e-07 2.156e-09
756 6 0.001 0.0024492 0 -0.0433691 -9.47542e-05 0 8.59486e-05 8.03566e-08 7.55234e-09
757 6 0.001 0.00242273 0 -0.0427336 -0.00010788 0 0.000104628 8.42811e-08 7.40543e-09
906 7 0.001 0.0074338 0 -0.0433653 -1.96084e-05 0 7.66094e-06 1.20163e-07 8.73928e-10
907 7 0.001 0.0074001 0 -0.0427291 -3.78204e-05 0 7.80284e-06 1.23487e-07 8.71753e-10
1056 8 0.001 0.0124183 0 -0.0433685 3.78917e-05 0 8.11035e-06 1.47248e-07 4.33788e-09
1057 8 0.001 0.0123782 0 -0.0427333 4.76546e-05 0 1.02332e-05 1.40445e-07 4.31733e-09
1207 9 0.001 0.0174083 0 -0.0427321 -6.23366e-06 0 2.47651e-06 9.87387e-08 4.29219e-09
1206 9 0.001 0.0174391 0 -0.0433677 -4.94415e-06 0 2.1032e-06 9.7763e-08 4.29341e-09
1356 10 0.001 0.0224187 0 -0.0433679 1.08311e-05 0 -2.40154e-07 1.45484e-07 3.39934e-09
1357 10 0.001 0.0223788 0 -0.0427326 1.60489e-05 0 -2.49917e-07 1.38529e-07 3.38888e-09
8 1 0.001 -0.02223 0 -0.042114 4.92567e-05 0 0.000117654 3.29779e-07 1.86949e-08
9 1 0.001 -0.0221427 0 -0.0414849 2.66238e-05 0 0.000135711 3.01879e-07 1.82621e-08
158 2 0.001 -0.0173166 0 -0.0421062 -2.29619e-05 0 7.79641e-05 1.30272e-07 1.55579e-08
159 2 0.001 -0.0172585 0 -0.0414735 -2.33629e-05 0 8.10204e-05 1.15223e-07 1.53298e-08
308 3 0.001 -0.0124588 0 -0.0420989 0.00018654 0 -4.25373e-06 1.16245e-08 1.15698e-08
309 3 0.001 -0.0124444 0 -0.0414635 0.000188354 0 -1.61504e-06 1.09613e-08 1.15652e-08
458 4 0.001 -0.0074928 0 -0.042095 -0.000139409 0 -8.80406e-05 1.86608e-09 5.77135e-09
459 4 0.001 -0.00749313 0 -0.0414588 -9.39871e-05 0 -9.84292e-05 2.76985e-09 5.90315e-09
608 5 0.001 -0.00265995 0 -0.0420962 0.000107902 0 8.88201e-05 1.11362e-07 2.08327e-09
609 5 0.001 -0.00271125 0 -0.0414615 0.000123674 0 9.76758e-05 1.04993e-07 2.00618e-09
759 6 0.001 0.00235218 0 -0.0414636 -9.45794e-05 0 0.000134365 8.90847e-08 7.02864e-09
758 6 0.001 0.00239042 0 -0.0420984 -0.000107415 0 0.000120387 8.72059e-08 7.22899e-09
908 7 0.001 0.00735936 0 -0.0420934 -5.99245e-05 0 6.55004e-06 1.26323e-07 8.68603e-10
909 7 0.001 0.00731147 0 -0.0414581 -8.29696e-05 0 5.81811e-06 1.285e-07 8.64235e-10
1058 8 0.001 0.0123306 0 -0.0420987 5.52374e-05 0 1.1414e-05 1.33524e-07 4.29603e-09
1059 8 0.001 0.0122757 0 -0.0414647 6.13253e-05 0 1.32933e-05 1.26581e-07 4.27434e-09
1209 9 0.001 0.0173277 0 -0.0414619 -7.97717e-06 0 2.59459e-06 9.92266e-08 4.28651e-09
1208 9 0.001 0.0173712 0 -0.0420968 -7.16048e-06 0 2.07947e-06 9.92301e-08 4.28992e-09
1358 10 0.001 0.0223315 0 -0.0420979 2.1788e-05 0 -3.84991e-07 1.31315e-07 3.37869e-09
1359 10 0.001 0.0222769 0 -0.0414637 2.8146e-05 0 5.93213e-07 1.23933e-07 3.36856e-09
10 1 0.001 -0.0220445 0 -0.0408574 -5.82238e-06 0 0.000150899 2.72485e-07 1.77982e-08
11 1 0.001 -0.021936 0 -0.0402316 -4.41042e-05 0 0.000162543 2.42528e-07 1.73215e-08
12 1 0.001 -0.0218177 0 -0.0396075 -8.166e-05 0 0.000171711 2.12896e-07 1.68469e-08
160 2 0.001 -0.0171937 0 -0.0408415 -1.88357e-05 0 8.35799e-05 1.0037e-07 1.50981e-08
161 2 0.001 -0.0171226 0 -0.0402101 -1.19738e-05 0 8.4404e-05 8.59174e-08 1.48652e-08
162 2 0.001 -0.0170456 0 -0.0395794 -1.20274e-05 0 8.82511e-05 7.2064e-08 1.46306e-08
310 3 0.001 -0.0124279 0 -0.0408281 0.000184458 0 5.18991e-07 9.87147e-09 1.15535e-08
311 3 0.001 -0.0124094 0 -0.0401927 0.000176367 0 5.11239e-06 8.43775e-09 1.15333e-08
312 3 0.001 -0.0123891 0 -0.0395574 0.000167087 0 1.56057e-05 6.77644e-09 1.14972e-08
460 4 0.001 -0.00749451 0 -0.0408227 -3.02924e-05 0 -0.000108575 3.74607e-09 6.05106e-09
461 4 0.001 -0.00749711 0 -0.0401865 3.99066e-05 0 -0.000115961 4.81988e-09 6.21381e-09
462 4 0.001 -0.00750111 0 -0.0395504 0.000100537 0 -0.000119868 6.06477e-09 6.38793e-09
610 5 0.001 -0.00276905 0 -0.0408274 0.000134361 0 0.000102816 9.93107e-08 1.92778e-09
611 5 0.001 -0.00283314 0 -0.0401938 0.00014133 0 0.000105742 9.43663e-08 1.85046e-09
612 5 0.001 -0.00290336 0 -0.0395609 0.000142202 0 0.000107832 9.01728e-08 1.77514e-09
762 6 0.001 0.00220144 0 -0.0395613 -1.6132e-05 0 0.000167699 8.92246e-08 6.33581e-09
761 6 0.001 0.0022577 0 -0.0401949 -4.9815e-05 0 0.000156511 8.99464e-08 6.5781e-09
760 6 0.001 0.00230795 0 -0.040829 -7.64771e-05 0 0.000145661 8.9959e-08 6.81006e-09
910 7 0.001 0.00725639 0 -0.0408235 -0.000106944 0 5.27497e-06 1.29833e-07 8.57997e-10
911 7 0.001 0.00719409 0 -0.0401895 -0.000132315 0 4.00387e-06 1.30136e-07 8.4955e-10
912 7 0.001 0.00712457 0 -0.0395562 -0.000156678 0 1.47368e-06 1.29231e-07 8.38994e-10
1060 8 0.001 0.0122136 0 -0.0408314 6.5519e-05 0 1.55842e-05 1.19691e-07 4.25172e-09
1061 8 0.001 0.0121447 0 -0.0401987 6.70108e-05 0 1.70452e-05 1.1291e-07 4.22835e-09
1062 8 0.001 0.012069 0 -0.0395668 6.62687e-05 0 1.76319e-05 1.06274e-07 4.20501e-09
1210 9 0.001 0.017278 0 -0.0408274 -8.92613e-06 0 3.82443e-06 9.8723e-08 4.28095e-09
1212 9 0.001 0.0171597 0 -0.0395602 -1.01599e-05 0 4.9261e-06 9.62242e-08 4.26339e-09
1211 9 0.001 0.0172219 0 -0.0401935 -9.71027e-06 0 4.67053e-06 9.772e-08 4.27304e-09
1362 10 0.001 0.0220717 0 -0.0395652 4.81699e-05 0 1.81475e-06 1.01648e-07 3.34016e-09
1360 10 0.001 0.0222152 0 -0.0408301 3.4727e-05 0 1.58066e-06 1.16471e-07 3.35824e-09
1361 10 0.001 0.0221468 0 -0.0401973 4.14445e-05 0 1.5584e-06 1.09016e-07 3.34856e-09
13 1 0.001 -0.0216904 0 -0.0389851 -0.000111338 0 0.000177933 1.84354e-07 1.63842e-08
14 1 0.001 -0.0215546 0 -0.0383645 -0.000128299 0 0.000179577 1.5747e-07 1.59406e-08
163 2 0.001 -0.0169633 0 -0.0389494 -1.74102e-05 0 9.04136e-05 5.90123e-08 1.43955e-08
164 2 0.001 -0.0168762 0 -0.03832 -2.48436e-05 0 9.02325e-05 4.69673e-08 1.41659e-08
314 3 0.001 -0.0123437 0 -0.038287 0.000146329 0 3.9775e-05 3.34442e-09 1.13555e-08
313 3 0.001 -0.0123671 0 -0.0389222 0.000157137 0 2.85353e-05 5.02738e-09 1.14379e-08
463 4 0.001 -0.00750665 0 -0.0389143 0.000150419 0 -0.000121271 7.589e-09 6.56996e-09
464 4 0.001 -0.00751393 0 -0.0382782 0.000181184 0 -0.000122661 9.51913e-09 6.75878e-09
613 5 0.001 -0.00297957 0 -0.0389286 0.000135678 0 0.000108687 8.67084e-08 1.70197e-09
614 5 0.001 -0.00306165 0 -0.0382971 0.00012509 0 0.000105968 8.39198e-08 1.63201e-09
764 6 0.001 0.00207103 0 -0.0382957 4.42989e-05 0 0.000183604 8.65256e-08 5.83528e-09
763 6 0.001 0.0021392 0 -0.0389282 1.6658e-05 0 0.000177484 8.80107e-08 6.08649e-09
913 7 0.001 0.00704785 0 -0.0389238 -0.00017681 0 -1.48447e-06 1.2697e-07 8.26559e-10
914 7 0.001 0.006964 0 -0.0382923 -0.000188294 0 -4.0908e-06 1.23261e-07 8.12426e-10
1063 8 0.001 0.0119869 0 -0.0389357 6.31601e-05 0 1.7988e-05 9.98005e-08 4.18202e-09
1064 8 0.001 0.0118984 0 -0.0383055 5.87281e-05 0 1.82313e-05 9.34921e-08 4.15921e-09
1213 9 0.001 0.0170912 0 -0.0389275 -1.0051e-05 0 5.17658e-06 9.42493e-08 4.25242e-09
1214 9 0.001 0.0170165 0 -0.0382955 -9.20349e-06 0 5.54292e-06 9.1817e-08 4.2402e-09
1364 10 0.001 0.0219028 0 -0.0383034 5.90177e-05 0 3.53853e-06 8.74462e-08 3.32603e-09
1363 10 0.001 0.0219903 0 -0.0389339 5.42386e-05 0 2.81879e-06 9.4438e-08 3.33271e-09
15 1 0.001 -0.0214111 0 -0.0377457 -0.000126076 0 0.000178759 1.32593e-07 1.55174e-08
16 1 0.001 -0.0212605 0 -0.0371285 -0.000110885 0 0.000169865 1.09877e-07 1.51178e-08
17 1 0.001 -0.0211035 0 -0.0365128 -8.32361e-05 0 0.000155768 8.93294e-08 1.47473e-08
165 2 0.001 -0.0167848 0 -0.0376912 -3.98847e-05 0 8.72148e-05 3.61192e-08 1.39496e-08
166 2 0.001 -0.0166896 0 -0.0370629 -5.8401e-05 0 8.11972e-05 2.6627e-08 1.37551e-08
167 2 0.001 -0.0165912 0 -0.0364351 -7.32684e-05 0 7.30791e-05 1.86023e-08 1.35879e-08
317 3 0.001 -0.0122678 0 -0.0363815 9.93998e-05 0 7.63846e-05 2.75456e-10 1.0983e-08
315 3 0.001 -0.0123191 0 -0.0376518 0.000135259 0 5.16047e-05 1.88742e-09 1.12521e-08
316 3 0.001 -0.0122937 0 -0.0370166 0.000121124 0 6.40881e-05 8.15012e-10 1.11276e-08
467 4 0.001 -0.00754838 0 -0.0363704 0.000148529 0 -0.000120095 1.89567e-08 7.3616e-09
466 4 0.001 -0.00753454 0 -0.0370063 0.000180998 0 -0.000123944 1.51084e-08 7.15724e-09
465 4 0.001 -0.00752314 0 -0.0376422 0.00019276 0 -0.000123989 1.19871e-08 6.95485e-09
615 5 0.001 -0.0031495 0 -0.0376663 0.000113738 0 0.000103078 8.17353e-08 1.56605e-09
616 5 0.001 -0.00324303 0 -0.0370364 0.000101125 0 9.72136e-05 8.00767e-08 1.50469e-09
617 5 0.001 -0.00334218 0 -0.0364073 8.6806e-05 0 8.905e-05 7.88633e-08 1.44914e-09
765 6 0.001 0.00199699 0 -0.0376638 6.21195e-05 0 0.000188019 8.49555e-08 5.58626e-09
767 6 0.001 0.00183152 0 -0.0364021 5.37004e-05 0 0.000181723 8.19689e-08 5.11012e-09
766 6 0.001 0.00191713 0 -0.0370326 6.60703e-05 0 0.000186924 8.34233e-08 5.34324e-09
917 7 0.001 0.00667111 0 -0.0364037 -0.000163527 0 -3.9123e-06 1.03889e-07 7.61257e-10
916 7 0.001 0.00677545 0 -0.0370322 -0.000181808 0 -5.25109e-06 1.1158e-07 7.79367e-10
915 7 0.001 0.00687315 0 -0.0376617 -0.000190537 0 -5.00778e-06 1.181e-07 7.96606e-10
1065 8 0.001 0.0118039 0 -0.0376762 5.32882e-05 0 1.8832e-05 8.7343e-08 4.13612e-09
1066 8 0.001 0.0117036 0 -0.0370477 4.71868e-05 0 1.88838e-05 8.13429e-08 4.11255e-09
1067 8 0.001 0.0115975 0 -0.0364202 4.16292e-05 0 1.92431e-05 7.5482e-08 4.0885e-09
1215 9 0.001 0.0169358 0 -0.0376642 -8.03929e-06 0 6.58142e-06 8.89571e-08 4.22643e-09
1217 9 0.001 0.0167568 0 -0.0364041 -5.11903e-06 0 7.8954e-06 8.21055e-08 4.19456e-09
1216 9 0.001 0.0168492 0 -0.0370337 -6.62748e-06 0 7.21511e-06 8.57063e-08 4.2111e-09
1367 10 0.001 0.0216059 0 -0.0364171 6.54693e-05 0 2.95697e-06 6.81742e-08 3.31416e-09
1366 10 0.001 0.0217103 0 -0.037045 6.4518e-05 0 3.27324e-06 7.42885e-08 3.31628e-09
1365 10 0.001 0.0218094 0 -0.0376738 6.22847e-05 0 4.05938e-06 8.0719e-08 3.32033e-09
18 1 0.001 -0.0209406 0 -0.0358986 -4.24469e-05 0 0.000135398 7.0876e-08 1.44087e-08
19 1 0.001 -0.0207727 0 -0.0352858 5.93026e-06 0 0.000110199 5.44199e-08 1.41045e-08
168 2 0.001 -0.0164902 0 -0.0358077 -8.29292e-05 0 6.19194e-05 1.20947e-08 1.34517e-08
169 2 0.001 -0.016387 0 -0.0351807 -8.34198e-05 0 4.62214e-05 7.09155e-09 1.33514e-08
319 3 0.001 -0.0122159 0 -0.0351112 2.96264e-05 0 9.92491e-05 1.24866e-09 1.06419e-08
318 3 0.001 -0.0122418 0 -0.0357463 6.77122e-05 0 8.85208e-05 3.92907e-10 1.08201e-08
469 4 0.001 -0.00758461 0 -0.0350989 5.18062e-05 0 -0.000107387 2.87878e-08 7.75519e-09
468 4 0.001 -0.00756496 0 -0.0357346 0.000104465 0 -0.000113635 2.3541e-08 7.56203e-09
618 5 0.001 -0.0034469 0 -0.035779 7.28538e-05 0 7.99537e-05 7.80121e-08 1.39988e-09
619 5 0.001 -0.00355715 0 -0.0351517 5.29331e-05 0 6.65458e-05 7.74272e-08 1.35775e-09
769 6 0.001 0.00164326 0 -0.0351435 -3.13644e-07 0 0.000160678 7.90493e-08 4.67921e-09
768 6 0.001 0.00174021 0 -0.0357724 2.958e-05 0 0.000174035 8.05477e-08 4.888e-09
919 7 0.001 0.00644351 0 -0.03515 -0.000106127 0 1.96201e-06 8.61054e-08 7.2416e-10
918 7 0.001 0.00656037 0 -0.0357763 -0.000137635 0 -7.17894e-07 9.52928e-08 7.42593e-10
1069 8 0.001 0.0113694 0 -0.035168 3.28632e-05 0 1.93343e-05 6.41595e-08 4.03863e-09
1068 8 0.001 0.0114861 0 -0.0357936 3.6895e-05 0 1.97443e-05 6.97542e-08 4.06369e-09
1219 9 0.001 0.0165549 0 -0.0351474 -1.29391e-06 0 8.38197e-06 7.40368e-08 4.15893e-09
1218 9 0.001 0.0166586 0 -0.0357753 -3.34309e-06 0 8.57548e-06 7.81998e-08 4.17694e-09
1369 10 0.001 0.0213817 0 -0.0351639 6.23848e-05 0 3.17879e-06 5.6921e-08 3.31252e-09
1368 10 0.001 0.0214963 0 -0.0357901 6.4817e-05 0 3.57137e-06 6.23854e-08 3.31301e-09
20 1 0.001 -0.0206002 0 -0.0346742 5.9971e-05 0 8.334e-05 3.98931e-08 1.38348e-08
21 1 0.001 -0.020424 0 -0.0340637 0.000112882 0 5.70147e-05 2.73131e-08 1.35968e-08
22 1 0.001 -0.0202445 0 -0.0334541 0.000158602 0 3.36651e-05 1.68202e-08 1.3388e-08
170 2 0.001 -0.0162823 0 -0.0345539 -6.57079e-05 0 2.57246e-05 3.53265e-09 1.32912e-08
171 2 0.001 -0.0161764 0 -0.0339273 -3.14271e-05 0 9.40874e-07 1.33884e-09 1.32738e-08
321 3 0.001 -0.0121666 0 -0.0338407 -4.98256e-05 0 0.000113249 5.18829e-09 1.02563e-08
320 3 0.001 -0.0121908 0 -0.034476 -1.09122e-05 0 0.000108033 2.86341e-09 1.04523e-08
471 4 0.001 -0.00763441 0 -0.033828 -4.76033e-05 0 -8.91933e-05 4.05611e-08 8.10432e-09
470 4 0.001 -0.00760765 0 -0.0344634 -2.04349e-06 0 -9.86067e-05 3.45379e-08 7.9374e-09
621 5 0.001 -0.00379415 0 -0.0339001 -1.84301e-05 0 2.37143e-05 7.64974e-08 1.30149e-09
620 5 0.001 -0.00367291 0 -0.0345254 2.3491e-05 0 4.69111e-05 7.69827e-08 1.32463e-09
771 6 0.001 0.00143268 0 -0.0338883 -6.02212e-05 0 0.000122361 7.52364e-08 4.31653e-09
770 6 0.001 0.00154073 0 -0.0345155 -3.10761e-05 0 0.000142615 7.73292e-08 4.48792e-09
921 7 0.001 0.00619274 0 -0.0339008 -3.47681e-05 0 9.95182e-06 6.72656e-08 6.90938e-10
920 7 0.001 0.00632085 0 -0.0345249 -7.09199e-05 0 5.66878e-06 7.66572e-08 7.06821e-10
1071 8 0.001 0.0111212 0 -0.0339195 2.5886e-05 0 1.95734e-05 5.3393e-08 3.9883e-09
1070 8 0.001 0.0112477 0 -0.0345433 2.90821e-05 0 1.93498e-05 5.87028e-08 4.01361e-09
1220 9 0.001 0.0164458 0 -0.0345204 5.53462e-07 0 8.61568e-06 6.96661e-08 4.14095e-09
1221 9 0.001 0.0163315 0 -0.0338943 2.16593e-06 0 8.94541e-06 6.51372e-08 4.12276e-09
1370 10 0.001 0.0212624 0 -0.0345387 5.84356e-05 0 1.98022e-06 5.1771e-08 3.31325e-09
1371 10 0.001 0.0211387 0 -0.0339143 5.31495e-05 0 -2.45081e-07 4.6918e-08 3.31573e-09
23 1 0.001 -0.0200627 0 -0.0328452 0.000190229 0 1.13036e-05 8.6971e-09 1.32103e-08
24 1 0.001 -0.0198791 0 -0.0322368 0.000202336 0 -5.34556e-06 3.35617e-09 1.30677e-08
172 2 0.001 -0.0160699 0 -0.0333008 1.55227e-05 0 -2.09752e-05 4.49177e-10 1.32948e-08
173 2 0.001 -0.0159634 0 -0.0326743 6.94866e-05 0 -4.63792e-05 8.597e-10 1.33514e-08
174 2 0.001 -0.0158572 0 -0.0320478 0.000118557 0 -6.99492e-05 2.64732e-09 1.34456e-08
322 3 0.001 -0.0121438 0 -0.0332054 -8.35389e-05 0 0.00011793 8.10864e-09 1.00571e-08
324 3 0.001 -0.0121041 0 -0.0319344 -0.000112583 0 0.000121332 1.50744e-08 9.65393e-09
323 3 0.001 -0.0121229 0 -0.0325699 -0.000104263 0 0.000120761 1.14637e-08 9.85557e-09
474 4 0.001 -0.00774006 0 -0.0319232 -9.95301e-05 0 -5.19695e-05 5.76949e-08 8.47855e-09
473 4 0.001 -0.00770034 0 -0.0325578 -9.47987e-05 0 -6.46662e-05 5.2375e-08 8.37715e-09
472 4 0.001 -0.00766521 0 -0.0331928 -7.89626e-05 0 -7.73526e-05 4.65921e-08 8.25206e-09
624 5 0.001 -0.00419046 0 -0.032031 -0.000211322 0 -5.8919e-05 7.20163e-08 1.2817e-09
623 5 0.001 -0.00405297 0 -0.0326529 -0.000140157 0 -2.91954e-05 7.43431e-08 1.28084e-09
622 5 0.001 -0.00392085 0 -0.0332759 -7.49087e-05 0 -1.02549e-06 7.57212e-08 1.28724e-09
774 6 0.001 0.00107634 0 -0.0320127 -0.00011436 0 6.94638e-05 6.55848e-08 3.9108e-09
773 6 0.001 0.00120037 0 -0.0326369 -0.00010337 0 8.55207e-05 6.94359e-08 4.0295e-09
772 6 0.001 0.00131919 0 -0.0332621 -8.48626e-05 0 0.000103508 7.26376e-08 4.16431e-09
922 7 0.001 0.00605952 0 -0.0332778 5.12174e-07 0 1.52193e-05 5.82115e-08 6.76621e-10
924 7 0.001 0.00577926 0 -0.0320347 5.68673e-05 0 2.13383e-05 4.19448e-08 6.53758e-10
923 7 0.001 0.00592157 0 -0.0326558 3.1851e-05 0 1.92724e-05 4.9719e-08 6.64066e-10
1072 8 0.001 0.0109902 0 -0.0332967 2.2512e-05 0 2.08214e-05 4.82417e-08 3.96201e-09
1074 8 0.001 0.0107155 0 -0.0320539 1.68816e-05 0 2.15327e-05 3.84708e-08 3.90654e-09
1073 8 0.001 0.0108549 0 -0.0326748 1.94789e-05 0 2.14464e-05 4.32626e-08 3.93451e-09
1224 9 0.001 0.0159591 0 -0.0320218 5.04624e-06 0 1.08531e-05 5.1076e-08 4.06407e-09
1223 9 0.001 0.016088 0 -0.032645 4.17899e-06 0 1.07648e-05 5.57965e-08 4.08395e-09
1222 9 0.001 0.0162122 0 -0.0332692 3.18874e-06 0 1.02695e-05 6.04985e-08 4.10377e-09
1372 10 0.001 0.0210107 0 -0.0332907 4.56828e-05 0 -1.73203e-06 4.23394e-08 3.31962e-09
1374 10 0.001 0.0207428 0 -0.0320462 2.59735e-05 0 -6.06565e-06 3.38966e-08 3.32936e-09
1373 10 0.001 0.0208787 0 -0.0326681 3.62814e-05 0 -3.677e-06 3.80083e-08 3.32417e-09
25 1 0.001 -0.0196947 0 -0.0316287 0.000195902 0 -1.50015e-05 1.29302e-09 1.29604e-08
26 1 0.001 -0.0195101 0 -0.0310205 0.000180121 0 -2.22963e-05 3.01706e-09 1.28892e-08
27 1 0.001 -0.0193263 0 -0.0304122 0.000151284 0 -2.29132e-05 8.97433e-09 1.28537e-08
175 2 0.001 -0.0157519 0 -0.0314211 0.000155287 0 -8.63916e-05 5.97202e-09 1.35723e-08
176 2 0.001 -0.0156482 0 -0.0307942 0.000171683 0 -9.84493e-05 1.1053e-08 1.37271e-08
326 3 0.001 -0.0120741 0 -0.0306632 -0.000118631 0 0.000121686 2.23764e-08 9.25466e-09
325 3 0.001 -0.0120877 0 -0.0312988 -0.000117397 0 0.000121012 1.87653e-08 9.4539e-09
476 4 0.001 -0.00783415 0 -0.0306549 -7.67647e-05 0 -2.10588e-05 6.63966e-08 8.60426e-09
475 4 0.001 -0.0077846 0 -0.0312888 -9.39555e-05 0 -3.7805e-05 6.23965e-08 8.5551e-09
626 5 0.001 -0.00448114 0 -0.0307907 -0.000325375 0 -0.000115378 6.33356e-08 1.30267e-09
625 5 0.001 -0.00433323 0 -0.0314102 -0.000274352 0 -8.74136e-05 6.84219e-08 1.28896e-09
776 6 0.001 0.000813306 0 -0.0307672 -0.000111307 0 3.94793e-05 5.60347e-08 3.71988e-09
775 6 0.001 0.000947257 0 -0.0313895 -0.000117546 0 5.4733e-05 6.10945e-08 3.80726e-09
925 7 0.001 0.00563295 0 -0.0314146 7.6252e-05 0 2.25639e-05 3.49775e-08 6.45878e-10
926 7 0.001 0.00548299 0 -0.0307954 8.83918e-05 0 2.21231e-05 2.88453e-08 6.4037e-10
1076 8 0.001 0.0104255 0 -0.0308144 9.97591e-06 0 2.31211e-05 2.95113e-08 3.84796e-09
1075 8 0.001 0.0105723 0 -0.0314337 1.35225e-05 0 2.25415e-05 3.38819e-08 3.87782e-09
1226 9 0.001 0.0156883 0 -0.0307781 5.61688e-06 0 1.25306e-05 4.17476e-08 4.02298e-09
1225 9 0.001 0.0158259 0 -0.0313995 5.48021e-06 0 1.19107e-05 4.63795e-08 4.04385e-09
1376 10 0.001 0.0204604 0 -0.0308048 4.66068e-06 0 -1.03309e-05 2.62341e-08 3.34032e-09
1375 10 0.001 0.0206033 0 -0.0314251 1.51105e-05 0 -7.93945e-06 2.99784e-08 3.3348e-09
28 1 0.001 -0.0191441 0 -0.0298033 0.000110859 0 -1.62713e-05 1.94728e-08 1.28485e-08
29 1 0.001 -0.0189646 0 -0.0291937 6.22196e-05 0 -8.69134e-06 3.46163e-08 1.28716e-08
177 2 0.001 -0.0155464 0 -0.0301669 0.000164727 0 -0.000105705 1.81198e-08 1.39094e-08
178 2 0.001 -0.0154472 0 -0.0295393 0.000140271 0 -0.000107416 2.73531e-08 1.41169e-08
179 2 0.001 -0.0153513 0 -0.0289111 0.000103847 0 -0.000103532 3.88285e-08 1.43432e-08
327 3 0.001 -0.0120635 0 -0.0300274 -0.000116871 0 0.000121367 2.57672e-08 9.05561e-09
328 3 0.001 -0.0120561 0 -0.0293916 -0.000113911 0 0.000119545 2.88208e-08 8.85855e-09
477 4 0.001 -0.00788886 0 -0.0300213 -5.22362e-05 0 -4.61535e-06 6.96875e-08 8.62553e-09
478 4 0.001 -0.00794886 0 -0.0293883 -2.82738e-05 0 1.09016e-05 7.23214e-08 8.6211e-09
627 5 0.001 -0.00463398 0 -0.0301724 -0.000354444 0 -0.000140037 5.6705e-08 1.32374e-09
629 5 0.001 -0.0049533 0 -0.0289393 -0.000323377 0 -0.000164728 3.97322e-08 1.39063e-09
628 5 0.001 -0.00479149 0 -0.0295553 -0.000353323 0 -0.0001574 4.87006e-08 1.35304e-09
779 6 0.001 0.00038453 0 -0.0289066 -4.47e-05 0 2.63909e-06 3.88757e-08 3.56878e-09
778 6 0.001 0.000531686 0 -0.0295258 -7.27462e-05 0 1.13658e-05 4.47455e-08 3.60109e-09
777 6 0.001 0.000674701 0 -0.030146 -9.56239e-05 0 2.42744e-05 5.05293e-08 3.6509e-09
929 7 0.001 0.00501459 0 -0.0289423 7.94236e-05 0 8.14039e-06 1.50916e-08 6.38864e-10
928 7 0.001 0.0051735 0 -0.0295593 9.01059e-05 0 1.46182e-05 1.89701e-08 6.36993e-10
927 7 0.001 0.00532973 0 -0.030177 9.33006e-05 0 1.89972e-05 2.35282e-08 6.37418e-10
1077 8 0.001 0.0102753 0 -0.030196 6.70035e-06 0 2.27406e-05 2.5374e-08 3.8177e-09
1079 8 0.001 0.00996589 0 -0.0289612 -9.38053e-07 0 2.16742e-05 1.78597e-08 3.75755e-09
1078 8 0.001 0.010122 0 -0.0295782 2.80229e-06 0 2.23313e-05 2.1485e-08 3.78754e-09
1227 9 0.001 0.0155468 0 -0.0301576 5.36964e-06 0 1.19669e-05 3.72174e-08 4.00237e-09
1229 9 0.001 0.0152527 0 -0.0289192 3.28446e-06 0 1.09826e-05 2.85945e-08 3.96336e-09
1228 9 0.001 0.0154015 0 -0.029538 4.4439e-06 0 1.14976e-05 3.28227e-08 3.98253e-09
1379 10 0.001 0.0200138 0 -0.0289482 -2.48284e-05 0 -1.88455e-05 1.59746e-08 3.36106e-09
1378 10 0.001 0.0201654 0 -0.0295664 -1.56411e-05 0 -1.62316e-05 1.92297e-08 3.35356e-09
1377 10 0.001 0.0203144 0 -0.0301853 -5.48688e-06 0 -1.35926e-05 2.2652e-08 3.34655e-09
30 1 0.001 -0.0187885 0 -0.0285831 6.16518e-06 0 -2.82727e-06 5.42506e-08 1.29271e-08
31 1 0.001 -0.0186169 0 -0.0279712 -5.1632e-05 0 6.8613e-06 7.79347e-08 1.30129e-08
32 1 0.001 -0.0184506 0 -0.0273578 -0.000111083 0 1.64025e-05 1.04936e-07 1.31223e-08
180 2 0.001 -0.0152592 0 -0.0282825 6.68603e-05 0 -0.000100476 5.24892e-08 1.4585e-08
181 2 0.001 -0.0151717 0 -0.0276531 2.46154e-05 0 -9.46414e-05 6.81267e-08 1.48396e-08
329 3 0.001 -0.0120522 0 -0.0287557 -0.000107296 0 0.000113731 3.14486e-08 8.66784e-09
331 3 0.001 -0.0120551 0 -0.0274839 -7.33436e-05 0 9.67915e-05 3.52539e-08 8.32257e-09
330 3 0.001 -0.0120518 0 -0.0281198 -9.39115e-05 0 0.000105943 3.35965e-08 8.48829e-09
481 4 0.001 -0.00816138 0 -0.0274925 3.81185e-05 0 4.69049e-05 7.72359e-08 8.48972e-09
479 4 0.001 -0.00801423 0 -0.0287558 -4.58598e-06 0 2.4496e-05 7.43868e-08 8.59425e-09
480 4 0.001 -0.00808506 0 -0.0281238 1.80449e-05 0 3.57786e-05 7.5988e-08 8.54951e-09
631 5 0.001 -0.00528805 0 -0.0277102 -0.000182406 0 -0.00015471 2.14453e-08 1.4928e-09
630 5 0.001 -0.00511899 0 -0.0283243 -0.000266565 0 -0.000164367 3.04077e-08 1.43687e-09
781 6 0.001 7.89759e-05 0 -0.0276708 1.98314e-05 0 -1.25047e-05 2.76473e-08 3.55502e-09
780 6 0.001 0.000233525 0 -0.0282883 -1.1669e-05 0 -6.01461e-06 3.31166e-08 3.55347e-09
931 7 0.001 0.00468994 0 -0.0277102 4.56976e-05 0 -6.6171e-06 9.02208e-09 6.48922e-10
930 7 0.001 0.00485332 0 -0.028326 6.40685e-05 0 2.72811e-07 1.18039e-08 6.42996e-10
1081 8 0.001 0.00964609 0 -0.0277291 -9.08776e-06 0 1.972e-05 1.14651e-08 3.69971e-09
1080 8 0.001 0.00980716 0 -0.0283449 -4.6264e-06 0 2.01205e-05 1.45141e-08 3.72835e-09
1231 9 0.001 0.0149454 0 -0.027684 4.08015e-07 0 9.89538e-06 2.07509e-08 3.92776e-09
1230 9 0.001 0.0151006 0 -0.0283012 2.12924e-06 0 9.85694e-06 2.45614e-08 3.94522e-09
1381 10 0.001 0.0197033 0 -0.0277136 -3.65667e-05 0 -2.18884e-05 1.00543e-08 3.37807e-09
1380 10 0.001 0.0198596 0 -0.0283307 -3.15092e-05 0 -2.14564e-05 1.29057e-08 3.36942e-09
33 1 0.001 -0.0182906 0 -0.0267428 -0.000162292 0 2.4073e-05 1.34271e-07 1.32499e-08
34 1 0.001 -0.0181377 0 -0.026126 -0.000201158 0 2.8983e-05 1.64791e-07 1.33887e-08
182 2 0.001 -0.0150893 0 -0.0270231 -1.69945e-05 0 -9.09127e-05 8.53848e-08 1.51049e-08
183 2 0.001 -0.0150128 0 -0.0263924 -5.3038e-05 0 -8.59048e-05 1.03774e-07 1.53777e-08
333 3 0.001 -0.0120731 0 -0.0262122 -1.5608e-05 0 8.04949e-05 3.7273e-08 8.03493e-09
332 3 0.001 -0.0120622 0 -0.026848 -4.76796e-05 0 8.78709e-05 3.64544e-08 8.17179e-09
483 4 0.001 -0.00833068 0 -0.026232 3.51629e-05 0 6.22021e-05 7.8974e-08 8.33024e-09
482 4 0.001 -0.00824325 0 -0.0268619 4.52493e-05 0 5.57579e-05 7.822e-08 8.41626e-09
634 5 0.001 -0.00580962 0 -0.0258723 0.00015886 0 -8.98772e-05 3.0983e-09 1.72833e-09
633 5 0.001 -0.00563399 0 -0.0264844 3.573e-05 0 -0.000118035 7.32403e-09 1.63839e-09
632 5 0.001 -0.00545992 0 -0.027097 -7.95156e-05 0 -0.000139222 1.35565e-08 1.55963e-09
784 6 0.001 -0.000402782 0 -0.0258231 7.60288e-05 0 -4.19101e-05 1.41616e-08 3.66091e-09
783 6 0.001 -0.000239493 0 -0.0264383 6.99138e-05 0 -3.03967e-05 1.81038e-08 3.60866e-09
782 6 0.001 -7.88026e-05 0 -0.0270542 4.97468e-05 0 -2.01751e-05 2.2612e-08 3.57309e-09
932 7 0.001 0.00452474 0 -0.0270948 2.73191e-05 0 -1.35665e-05 6.67495e-09 6.56159e-10
934 7 0.001 0.00418987 0 -0.0258654 -4.56141e-06 0 -2.64147e-05 3.09598e-09 6.74577e-10
933 7 0.001 0.00435796 0 -0.0264799 1.0447e-05 0 -2.049e-05 4.71016e-09 6.64733e-10
1084 8 0.001 0.00915155 0 -0.0258848 -2.20711e-05 0 1.74665e-05 4.28731e-09 3.61422e-09
1083 8 0.001 0.00931802 0 -0.0264991 -1.79332e-05 0 1.83454e-05 6.33099e-09 3.64246e-09
1082 8 0.001 0.00948296 0 -0.0271139 -1.34655e-05 0 1.90839e-05 8.73084e-09 3.67101e-09
1234 9 0.001 0.014464 0 -0.0258363 -8.14398e-06 0 7.95846e-06 1.09024e-08 3.87717e-09
1233 9 0.001 0.0146269 0 -0.0264516 -4.77238e-06 0 8.72904e-06 1.3898e-08 3.89358e-09
1232 9 0.001 0.0147874 0 -0.0270674 -1.88096e-06 0 9.44046e-06 1.71884e-08 3.91045e-09
1384 10 0.001 0.0192237 0 -0.0258653 -3.85891e-05 0 -2.04285e-05 3.26273e-09 3.40189e-09
1383 10 0.001 0.0193851 0 -0.026481 -4.0236e-05 0 -2.1532e-05 5.18021e-09 3.39413e-09
1382 10 0.001 0.019545 0 -0.0270971 -3.95569e-05 0 -2.19417e-05 7.46237e-09 3.38623e-09
35 1 0.001 -0.0179927 0 -0.0255073 -0.000221064 0 3.09919e-05 1.95303e-07 1.35305e-08
36 1 0.001 -0.0178564 0 -0.0248866 -0.000224543 0 3.33324e-05 2.24693e-07 1.36637e-08
37 1 0.001 -0.0177294 0 -0.024264 -0.000206101 0 3.33669e-05 2.5204e-07 1.37779e-08
184 2 0.001 -0.0149426 0 -0.025761 -8.37031e-05 0 -7.58475e-05 1.22709e-07 1.56457e-08
186 2 0.001 -0.0148238 0 -0.024496 -0.000125809 0 -5.8477e-05 1.59632e-07 1.61332e-08
185 2 0.001 -0.0148795 0 -0.0251289 -0.000108681 0 -6.69487e-05 1.41546e-07 1.58989e-08
336 3 0.001 -0.0121292 0 -0.0243051 0.000164401 0 7.54157e-05 3.89599e-08 7.67699e-09
335 3 0.001 -0.0121066 0 -0.0249407 9.56495e-05 0 7.61443e-05 3.83155e-08 7.78929e-09
334 3 0.001 -0.0120879 0 -0.0255764 3.14047e-05 0 7.69975e-05 3.78325e-08 7.90859e-09