ITEM: TIMESTEP
8000000
ITEM: NUMBER OF ATOMS
1500
ITEM: BOX BOUNDS ff ff ff
-2.5000000000000001e-02 2.5000000000000001e-02
-5.0000000000000001e-03 5.0000000000000001e-03
-5.0000000000000003e-02 5.0000000000000003e-02
ITEM: ATOMS id type radius x y z fx fy fz c_bendingE c_stretchingE
1 1 0.001 -0.0225 0 -0.0323 -0.20337 0 -3.8e-09 1.39727e-06 1.59293e-34
2 1 0.001 -0.0225 0 -0.0316624 0.199362 0 -0.0126671 2.8385e-06 6.90711e-09
151 2 0.001 -0.0175 0 -0.0323 -0.248635 0 -3.8e-09 2.08955e-06 1.59293e-34
152 2 0.001 -0.0175 0 -0.0316624 0.246179 0 -0.0163062 4.19859e-06 1.12314e-08
301 3 0.001 -0.0125 0 -0.0323 -0.284743 0 -3.8e-09 2.74187e-06 1.59293e-34
302 3 0.001 -0.0125 0 -0.0316624 0.283938 0 -0.0204416 5.46369e-06 1.73264e-08
451 4 0.001 -0.0075 0 -0.0323 -0.311372 0 -3.8e-09 3.28002e-06 1.59293e-34
452 4 0.001 -0.0075 0 -0.0316624 0.314269 0 -0.0221924 6.45429e-06 1.97218e-08
601 5 0.001 -0.0025 0 -0.0323 -0.310105 0 -3.8e-09 3.2533e-06 1.59293e-34
602 5 0.001 -0.0025 0 -0.0316624 0.315506 0 -0.0223972 6.35001e-06 1.96481e-08
751 6 0.001 0.0025 0 -0.0323 -0.280064 0 -3.8e-09 2.65233e-06 1.59293e-34
752 6 0.001 0.0025 0 -0.0316624 0.286999 0 -0.0195645 5.14389e-06 1.47808e-08
901 7 0.001 0.0075 0 -0.0323 -0.226042 0 -3.8e-09 1.72659e-06 1.59293e-34
902 7 0.001 0.0075 0 -0.0316624 0.232694 0 -0.0156638 3.33699e-06 9.52208e-09
1051 8 0.001 0.0125 0 -0.0323 -0.167044 0 -3.8e-09 9.4236e-07 1.59293e-34
1052 8 0.001 0.0125 0 -0.0316624 0.173222 0 -0.0112444 1.81009e-06 4.93245e-09
1201 9 0.001 0.0175 0 -0.0323 -0.111693 0 -3.8e-09 4.2115e-07 1.59293e-34
1202 9 0.001 0.0175 0 -0.0316624 0.116659 0 -0.00882896 8.03525e-07 3.10385e-09
1351 10 0.001 0.0225 0 -0.0323 -0.0498946 0 -3.8e-09 8.40206e-08 1.59293e-34
1352 10 0.001 0.0225 0 -0.0316624 0.052668 0 -0.00660927 1.58644e-07 1.78875e-09
3 1 0.001 -0.022459 0 -0.0310283 -1.18988e-08 0 7.92595e-10 4.31235e-06 1.40093e-08
4 1 0.001 -0.0223764 0 -0.0303983 -3.39766e-08 0 3.56901e-09 4.40951e-06 1.43416e-08
153 2 0.001 -0.0174499 0 -0.0310295 -2.4408e-09 0 6.2639e-10 6.30514e-06 2.25177e-08
154 2 0.001 -0.0173497 0 -0.0304027 -7.5685e-09 0 1.51592e-09 6.29771e-06 2.24857e-08
303 3 0.001 -0.0124426 0 -0.0310308 1.47811e-08 0 1.32765e-09 8.13063e-06 3.43532e-08
304 3 0.001 -0.0123286 0 -0.0304069 4.16163e-08 0 -4.94426e-10 7.96786e-06 3.34901e-08
453 4 0.001 -0.00743731 0 -0.0310316 1.12303e-08 0 -9.52673e-10 9.4821e-06 3.83775e-08
454 4 0.001 -0.00731352 0 -0.0304097 3.1494e-08 0 -4.78996e-09 9.04797e-06 3.59679e-08
603 5 0.001 -0.00243756 0 -0.0310315 -2.04794e-09 0 -3.59361e-10 9.25322e-06 3.78271e-08
604 5 0.001 -0.00231476 0 -0.0304094 -4.53541e-09 0 -6.03814e-10 8.67959e-06 3.4683e-08
753 6 0.001 0.00255643 0 -0.0310305 -4.13757e-09 0 1.46263e-10 7.45152e-06 2.83112e-08
754 6 0.001 0.00266716 0 -0.0304056 -1.19291e-08 0 1.3052e-09 6.90524e-06 2.57283e-08
903 7 0.001 0.00754559 0 -0.031029 6.60531e-09 0 -4.1404e-10 4.82063e-06 1.83355e-08
904 7 0.001 0.007635 0 -0.0304001 1.77695e-08 0 -1.23532e-09 4.44329e-06 1.68959e-08
1053 8 0.001 0.0125337 0 -0.0310275 7.70313e-10 0 -6.48152e-10 2.60062e-06 9.54573e-09
1054 8 0.001 0.0125997 0 -0.0303951 2.49145e-09 0 -1.85802e-09 2.37025e-06 8.91031e-09
1203 9 0.001 0.0175226 0 -0.0310267 -2.80941e-09 0 3.29554e-09 1.14703e-06 6.07753e-09
1204 9 0.001 0.0175666 0 -0.030392 -9.39121e-09 0 6.63624e-09 1.03088e-06 5.82039e-09
1353 10 0.001 0.0225101 0 -0.031026 7.76734e-09 0 4.18285e-10 2.24136e-07 3.55375e-09
1354 10 0.001 0.0225297 0 -0.0303898 2.19309e-08 0 6.04723e-10 1.96821e-07 3.5072e-09
5 1 0.001 -0.0222523 0 -0.0297751 -6.44623e-08 0 9.15252e-09 4.47081e-06 1.45533e-08
6 1 0.001 -0.0220868 0 -0.0291617 -1.01829e-07 0 1.84328e-08 4.49496e-06 1.46371e-08
7 1 0.001 -0.0218806 0 -0.0285607 -1.43304e-07 0 3.19599e-08 4.48146e-06 1.45903e-08
155 2 0.001 -0.0172001 0 -0.0297857 -1.34588e-08 0 2.70814e-09 6.2251e-06 2.21737e-08
156 2 0.001 -0.0170024 0 -0.0291824 -2.00177e-08 0 4.48397e-09 6.08926e-06 2.15959e-08
157 2 0.001 -0.0167582 0 -0.0285963 -2.59718e-08 0 6.88053e-09 5.89379e-06 2.07779e-08
305 3 0.001 -0.0121594 0 -0.0297957 7.65879e-08 0 -6.51585e-09 7.70724e-06 3.21311e-08
306 3 0.001 -0.0119372 0 -0.0292015 1.17119e-07 0 -1.80659e-08 7.35729e-06 3.03507e-08
307 3 0.001 -0.0116648 0 -0.0286285 1.606e-07 0 -3.54401e-08 6.92913e-06 2.82416e-08
455 4 0.001 -0.00713117 0 -0.0298023 5.85619e-08 0 -1.27616e-08 8.50852e-06 3.30831e-08
456 4 0.001 -0.00689358 0 -0.0292141 8.98942e-08 0 -2.52699e-08 7.88222e-06 2.98856e-08
457 4 0.001 -0.00660469 0 -0.0286492 1.23889e-07 0 -4.19004e-08 7.18946e-06 2.65386e-08
605 5 0.001 -0.00213457 0 -0.0298013 -5.83906e-09 0 -1.16818e-09 8.01646e-06 3.1219e-08
606 5 0.001 -0.00190065 0 -0.0292115 -5.05369e-09 0 -2.52191e-09 7.28589e-06 2.76143e-08
607 5 0.001 -0.00161725 0 -0.0286437 -1.44037e-09 0 -5.21873e-09 6.51071e-06 2.40319e-08
755 6 0.001 0.00282939 0 -0.029792 -2.18419e-08 0 3.85945e-09 6.30624e-06 2.30385e-08
756 6 0.001 0.00303981 0 -0.029193 -3.24021e-08 0 7.46491e-09 5.67134e-06 2.03501e-08
757 6 0.001 0.00329472 0 -0.0286113 -4.32796e-08 0 1.16186e-08 5.01728e-06 1.77551e-08
905 7 0.001 0.00776609 0 -0.0297786 3.17214e-08 0 -3.85996e-09 4.04306e-06 1.54334e-08
906 7 0.001 0.00793639 0 -0.0291664 4.72573e-08 0 -8.03157e-09 3.62868e-06 1.3989e-08
907 7 0.001 0.00814322 0 -0.0285655 6.35739e-08 0 -1.32727e-08 3.2087e-06 1.25976e-08
1055 8 0.001 0.0126964 0 -0.0297666 5.83169e-09 0 -2.58732e-09 2.13582e-06 8.28618e-09
1056 8 0.001 0.012822 0 -0.0291432 1.21984e-08 0 -4.43747e-09 1.90088e-06 7.68343e-09
1057 8 0.001 0.0129746 0 -0.0285258 2.15936e-08 0 -7.35505e-09 1.66882e-06 7.11043e-09
1205 9 0.001 0.017631 0 -0.0297591 -1.76322e-08 0 1.07529e-08 9.1579e-07 5.5711e-09
1206 9 0.001 0.0177144 0 -0.0291283 -2.94002e-08 0 1.52719e-08 8.03093e-07 5.33227e-09
1207 9 0.001 0.0178156 0 -0.0285002 -4.31042e-08 0 2.02758e-08 6.9404e-07 5.10614e-09
1355 10 0.001 0.0225582 0 -0.0297539 4.11289e-08 0 4.92566e-10 1.70535e-07 3.46269e-09
1356 10 0.001 0.0225949 0 -0.0291185 6.3261e-08 0 1.04744e-10 1.45498e-07 3.42055e-09
1357 10 0.001 0.0226393 0 -0.0284835 8.71036e-08 0 -5.77418e-10 1.21919e-07 3.38111e-09
8 1 0.001 -0.0216346 0 -0.0279748 -1.87144e-07 0 4.97832e-08 4.43059e-06 1.44143e-08
9 1 0.001 -0.0213503 0 -0.0274066 -2.311e-07 0 7.13068e-08 4.34343e-06 1.41154e-08
158 2 0.001 -0.0164698 0 -0.0280306 -3.22384e-08 0 1.01956e-08 5.64377e-06 1.97547e-08
159 2 0.001 -0.0161396 0 -0.0274881 -3.8643e-08 0 1.34447e-08 5.34555e-06 1.85682e-08
160 2 0.001 -0.0157707 0 -0.026971 -4.51819e-08 0 1.75478e-08 5.00646e-06 1.72637e-08
308 3 0.001 -0.0113457 0 -0.02808 2.05117e-07 0 -5.78135e-08 6.43588e-06 2.59063e-08
309 3 0.001 -0.0109835 0 -0.0275587 2.48555e-07 0 -8.36354e-08 5.892e-06 2.34484e-08
310 3 0.001 -0.0105824 0 -0.0270666 2.89645e-07 0 -1.12268e-07 5.31263e-06 2.09651e-08
458 4 0.001 -0.00626893 0 -0.0281105 1.58847e-07 0 -6.25137e-08 6.45148e-06 2.31923e-08
459 4 0.001 -0.00589096 0 -0.0276004 1.92733e-07 0 -8.65075e-08 5.68934e-06 1.99736e-08
460 4 0.001 -0.00547554 0 -0.02712 2.23719e-07 0 -1.12142e-07 4.92318e-06 1.69806e-08
608 5 0.001 -0.00128894 0 -0.0281003 4.58439e-09 0 -9.90252e-09 5.71345e-06 2.06076e-08
609 5 0.001 -0.000920476 0 -0.027583 1.25205e-08 0 -1.67296e-08 4.91546e-06 1.7444e-08
610 5 0.001 -0.000516629 0 -0.0270926 2.15758e-08 0 -2.57133e-08 4.13626e-06 1.46094e-08
758 6 0.001 0.00359018 0 -0.0280489 -5.37237e-08 0 1.65993e-08 4.36004e-06 1.53261e-08
759 6 0.001 0.00392211 0 -0.0275071 -6.29352e-08 0 2.16655e-08 3.71442e-06 1.31141e-08
760 6 0.001 0.00428643 0 -0.0269863 -7.06219e-08 0 2.61223e-08 3.09376e-06 1.11501e-08
908 7 0.001 0.00838371 0 -0.0279772 7.96079e-08 0 -1.93673e-08 2.79128e-06 1.12869e-08
909 7 0.001 0.00865491 0 -0.0274022 9.49489e-08 0 -2.65148e-08 2.384e-06 1.00774e-08
1058 8 0.001 0.0131522 0 -0.027915 3.09775e-08 0 -1.02063e-08 1.44282e-06 6.57375e-09
1059 8 0.001 0.0133528 0 -0.0273113 4.23914e-08 0 -1.34048e-08 1.22585e-06 6.07831e-09
1208 9 0.001 0.0179333 0 -0.0278748 -5.74868e-08 0 2.57869e-08 5.89809e-07 4.89459e-09
1209 9 0.001 0.0180661 0 -0.0272525 -7.34141e-08 0 3.15097e-08 4.91493e-07 4.69914e-09
1358 10 0.001 0.0226907 0 -0.0278491 1.11368e-07 0 -1.5918e-09 9.99925e-08 3.34463e-09
1359 10 0.001 0.0227484 0 -0.0272151 1.35358e-07 0 -3.33681e-09 7.98974e-08 3.31137e-09
10 1 0.001 -0.0210291 0 -0.0268583 -2.74135e-07 0 9.57544e-08 4.22179e-06 1.37034e-08
11 1 0.001 -0.020673 0 -0.026332 -3.14235e-07 0 1.21783e-07 4.06818e-06 1.31919e-08
12 1 0.001 -0.0202841 0 -0.0258294 -3.49642e-07 0 1.47786e-07 3.8857e-06 1.25969e-08
161 2 0.001 -0.0153662 0 -0.0264813 -5.20503e-08 0 2.25731e-08 4.6345e-06 1.58876e-08
162 2 0.001 -0.0149292 0 -0.0260201 -5.85316e-08 0 2.80845e-08 4.23808e-06 1.44841e-08
163 2 0.001 -0.0144631 0 -0.0255882 -6.3378e-08 0 3.26324e-08 3.82573e-06 1.30932e-08
311 3 0.001 -0.0101465 0 -0.0266048 3.26667e-07 0 -1.41637e-07 4.71292e-06 1.85413e-08
312 3 0.001 -0.00967984 0 -0.0261739 3.57804e-07 0 -1.69277e-07 4.10756e-06 1.62457e-08
313 3 0.001 -0.00918647 0 -0.0257736 3.82459e-07 0 -1.93919e-07 3.51028e-06 1.41295e-08
461 4 0.001 -0.00502739 0 -0.0266697 2.51602e-07 0 -1.3832e-07 4.17149e-06 1.42802e-08
462 4 0.001 -0.00455105 0 -0.026249 2.75386e-07 0 -1.64136e-07 3.45078e-06 1.19106e-08
463 4 0.001 -0.00405078 0 -0.0258568 2.94976e-07 0 -1.88023e-07 2.77531e-06 9.88468e-09
464 4 0.001 -0.00353051 0 -0.0254912 3.10881e-07 0 -2.09845e-07 2.15706e-06 8.19551e-09
611 5 0.001 -8.20571e-05 0 -0.0266289 3.12487e-08 0 -3.62274e-08 3.39311e-06 1.214e-08
612 5 0.001 0.000378799 0 -0.0261911 4.10972e-08 0 -4.76752e-08 2.70081e-06 1.0045e-08
613 5 0.001 0.000861784 0 -0.0257776 5.08175e-08 0 -5.9652e-08 2.07171e-06 8.31284e-09
761 6 0.001 0.00467913 0 -0.0264864 -7.67185e-08 0 2.96463e-08 2.50969e-06 9.44727e-09
762 6 0.001 0.00509635 0 -0.0260065 -8.08944e-08 0 3.23034e-08 1.97215e-06 8.00458e-09
763 6 0.001 0.00553443 0 -0.0255454 -8.30479e-08 0 3.3607e-08 1.48939e-06 6.81054e-09
910 7 0.001 0.00895382 0 -0.0268411 1.09012e-07 0 -3.40255e-08 1.99377e-06 8.98293e-09
911 7 0.001 0.00927743 0 -0.0262937 1.22269e-07 0 -4.14771e-08 1.62678e-06 8.01094e-09
912 7 0.001 0.0096228 0 -0.0257596 1.34816e-07 0 -4.95983e-08 1.2884e-06 7.16399e-09
1060 8 0.001 0.0135744 0 -0.026715 5.59687e-08 0 -1.89376e-08 1.02059e-06 5.62748e-09
1061 8 0.001 0.0138149 0 -0.0261259 7.03772e-08 0 -2.56892e-08 8.29473e-07 5.22331e-09
1062 8 0.001 0.0140722 0 -0.025544 8.56555e-08 0 -3.2844e-08 6.54632e-07 4.86675e-09
1210 9 0.001 0.0182127 0 -0.0266333 -9.00672e-08 0 3.84565e-08 4.00095e-07 4.52102e-09
1211 9 0.001 0.0183715 0 -0.0260171 -1.06857e-07 0 4.74492e-08 3.16519e-07 4.36114e-09
1360 10 0.001 0.0228117 0 -0.0265818 1.57673e-07 0 -5.00477e-09 6.17974e-08 3.28155e-09
1361 10 0.001 0.02288 0 -0.0259489 1.77402e-07 0 -6.16393e-09 4.58387e-08 3.25537e-09
13 1 0.001 -0.0198646 0 -0.0253519 -3.7979e-07 0 1.73198e-07 3.67793e-06 1.19363e-08
14 1 0.001 -0.0194169 0 -0.0249007 -4.0414e-07 0 1.9679e-07 3.44884e-06 1.12285e-08
15 1 0.001 -0.0189435 0 -0.0244765 -4.23616e-07 0 2.18169e-07 3.20265e-06 1.04922e-08
16 1 0.001 -0.0184468 0 -0.0240796 -4.38489e-07 0 2.36259e-07 2.94374e-06 9.74473e-09
164 2 0.001 -0.0139711 0 -0.0251858 -6.67973e-08 0 3.62515e-08 3.4058e-06 1.17489e-08
165 2 0.001 -0.0134565 0 -0.0248127 -6.9669e-08 0 3.93918e-08 2.98631e-06 1.04788e-08
166 2 0.001 -0.0129221 0 -0.0244682 -7.16371e-08 0 4.16424e-08 2.57474e-06 9.30332e-09
167 2 0.001 -0.012371 0 -0.024151 -7.27003e-08 0 4.274e-08 2.17792e-06 8.23622e-09
314 3 0.001 -0.0086702 0 -0.025403 4.01252e-07 0 -2.14576e-07 2.9336e-06 1.22264e-08
315 3 0.001 -0.00813456 0 -0.0250608 4.15182e-07 0 -2.30135e-07 2.38861e-06 1.05542e-08
316 3 0.001 -0.00758279 0 -0.0247449 4.25327e-07 0 -2.41006e-07 1.88489e-06 9.11773e-09
317 3 0.001 -0.00701781 0 -0.0244531 4.31973e-07 0 -2.48112e-07 1.43053e-06 7.9119e-09
318 3 0.001 -0.00644217 0 -0.0241826 4.36843e-07 0 -2.52883e-07 1.03216e-06 6.92478e-09
465 4 0.001 -0.00299382 0 -0.0251499 3.23321e-07 0 -2.28932e-07 1.60584e-06 6.82245e-09
466 4 0.001 -0.00244389 0 -0.0248302 3.32737e-07 0 -2.44863e-07 1.12942e-06 5.73667e-09
467 4 0.001 -0.00188356 0 -0.0245287 3.39582e-07 0 -2.56828e-07 7.34284e-07 4.89589e-09
468 4 0.001 -0.00131536 0 -0.0242422 3.43455e-07 0 -2.64301e-07 4.26054e-07 4.25127e-09
614 5 0.001 0.00136307 0 -0.0253861 5.94439e-08 0 -7.13164e-08 1.51579e-06 6.91814e-09
615 5 0.001 0.00187917 0 -0.0250142 6.68166e-08 0 -8.20066e-08 1.04091e-06 5.8277e-09
616 5 0.001 0.0024069 0 -0.0246588 7.29918e-08 0 -9.18939e-08 6.53418e-07 4.99882e-09
617 5 0.001 0.0029434 0 -0.0243166 7.76436e-08 0 -1.00422e-07 3.58402e-07 4.38174e-09
764 6 0.001 0.0059899 0 -0.0251013 -8.33116e-08 0 3.3695e-08 1.0681e-06 5.84708e-09
765 6 0.001 0.00645955 0 -0.0246721 -8.23184e-08 0 3.23467e-08 7.1355e-07 5.09293e-09
766 6 0.001 0.00694035 0 -0.0242552 -8.02254e-08 0 2.96892e-08 4.29769e-07 4.52664e-09
913 7 0.001 0.00998705 0 -0.0252382 1.46787e-07 0 -5.76426e-08 9.8325e-07 6.44072e-09
914 7 0.001 0.0103674 0 -0.0247282 1.57114e-07 0 -6.47988e-08 7.15217e-07 5.83708e-09
915 7 0.001 0.0107611 0 -0.0242284 1.6605e-07 0 -7.20113e-08 4.87473e-07 5.34745e-09
1063 8 0.001 0.0143442 0 -0.0249687 1.02982e-07 0 -4.10726e-08 4.97937e-07 4.55788e-09
1064 8 0.001 0.0146288 0 -0.0243995 1.22154e-07 0 -5.10499e-08 3.60981e-07 4.29621e-09
1212 9 0.001 0.0185412 0 -0.0254037 -1.25802e-07 0 5.56496e-08 2.41573e-07 4.22022e-09
1213 9 0.001 0.0187203 0 -0.024793 -1.45696e-07 0 6.43213e-08 1.75961e-07 4.09875e-09
1214 9 0.001 0.0189074 0 -0.0241847 -1.63852e-07 0 7.20957e-08 1.20288e-07 3.99706e-09
1362 10 0.001 0.0229525 0 -0.0253165 1.94493e-07 0 -6.94633e-09 3.21493e-08 3.23299e-09
1363 10 0.001 0.0230285 0 -0.0246845 2.09444e-07 0 -7.64946e-09 2.08387e-08 3.21455e-09
1364 10 0.001 0.0231074 0 -0.0240528 2.21431e-07 0 -7.84058e-09 1.1997e-08 3.20016e-09
17 1 0.001 -0.0179293 0 -0.0237102 -4.49079e-07 0 2.50533e-07 2.67651e-06 9.00231e-09
18 1 0.001 -0.0173934 0 -0.023368 -4.55728e-07 0 2.60741e-07 2.40529e-06 8.27894e-09
19 1 0.001 -0.0168413 0 -0.0230523 -4.58268e-07 0 2.65079e-07 2.13427e-06 7.58644e-09
20 1 0.001 -0.0162752 0 -0.0227624 -4.57737e-07 0 2.63212e-07 1.86742e-06 6.93418e-09
21 1 0.001 -0.015697 0 -0.0224972 -4.54211e-07 0 2.54749e-07 1.60844e-06 6.32922e-09
168 2 0.001 -0.0118056 0 -0.0238598 -7.31063e-08 0 4.13398e-08 1.80199e-06 7.2852e-09
169 2 0.001 -0.0112283 0 -0.0235927 -7.23269e-08 0 3.70932e-08 1.45231e-06 6.45293e-09
170 2 0.001 -0.0106413 0 -0.0233476 -6.99082e-08 0 2.94974e-08 1.13351e-06 5.73809e-09
171 2 0.001 -0.0100463 0 -0.0231223 -6.55967e-08 0 1.78085e-08 8.49493e-07 5.13652e-09
172 2 0.001 -0.00944497 0 -0.0229141 -5.97646e-08 0 2.05959e-09 6.03472e-07 4.64229e-09
173 2 0.001 -0.00883872 0 -0.0227207 -5.31508e-08 0 -1.75569e-08 3.98051e-07 4.24873e-09
174 2 0.001 -0.00822876 0 -0.0225391 -4.62492e-08 0 -4.08511e-08 2.35549e-07 3.94051e-09
319 3 0.001 -0.00585815 0 -0.0239305 4.40523e-07 0 -2.55454e-07 6.953e-07 6.13768e-09
320 3 0.001 -0.00526773 0 -0.0236935 4.43361e-07 0 -2.56838e-07 4.2472e-07 5.52022e-09
321 3 0.001 -0.00467262 0 -0.0234684 4.46339e-07 0 -2.57984e-07 2.23976e-07 5.04186e-09
322 3 0.001 -0.00407435 0 -0.0232517 4.48878e-07 0 -2.58729e-07 9.33727e-08 4.69296e-09
323 3 0.001 -0.00347424 0 -0.02304 4.50666e-07 0 -2.58649e-07 2.78783e-08 4.4707e-09
324 3 0.001 -0.00287346 0 -0.0228301 4.52235e-07 0 -2.57467e-07 1.6745e-08 4.35502e-09
325 3 0.001 -0.00227307 0 -0.0226191 4.53389e-07 0 -2.54463e-07 4.58624e-08 4.30426e-09
469 4 0.001 -0.000741512 0 -0.023967 3.43944e-07 0 -2.66436e-07 2.07546e-07 3.77725e-09
470 4 0.001 -0.000164002 0 -0.0236994 3.42246e-07 0 -2.63147e-07 7.62583e-08 3.46298e-09
471 4 0.001 0.00041541 0 -0.0234358 3.38242e-07 0 -2.54667e-07 2.27058e-08 3.29694e-09
472 4 0.001 0.00099515 0 -0.023173 3.31876e-07 0 -2.41445e-07 3.18569e-08 3.26387e-09
473 4 0.001 0.0015738 0 -0.0229078 3.23251e-07 0 -2.23866e-07 8.58331e-08 3.33029e-09
474 4 0.001 0.00215009 0 -0.0226375 3.12601e-07 0 -2.03154e-07 1.67615e-07 3.43615e-09
618 5 0.001 0.00348604 0 -0.0239841 8.09432e-08 0 -1.06758e-07 1.58338e-07 3.94372e-09
619 5 0.001 0.00403242 0 -0.0236577 8.26008e-08 0 -1.1044e-07 5.02932e-08 3.67319e-09
620 5 0.001 0.00458036 0 -0.0233338 8.24562e-08 0 -1.1126e-07 2.42552e-08 3.55631e-09
621 5 0.001 0.00512786 0 -0.0230092 8.07547e-08 0 -1.09317e-07 6.41612e-08 3.56914e-09
622 5 0.001 0.00567307 0 -0.0226808 7.76219e-08 0 -1.04517e-07 1.50953e-07 3.68289e-09
767 6 0.001 0.00742947 0 -0.0238481 -7.74675e-08 0 2.58381e-08 2.19957e-07 4.12184e-09
768 6 0.001 0.00792425 0 -0.0234478 -7.40709e-08 0 2.09305e-08 8.5933e-08 3.84244e-09
769 6 0.001 0.00842214 0 -0.0230513 -6.97629e-08 0 1.49253e-08 2.65963e-08 3.66981e-09
770 6 0.001 0.00892074 0 -0.0226557 -6.489e-08 0 7.77548e-09 3.6311e-08 3.61522e-09
916 7 0.001 0.0111656 0 -0.0237373 1.73975e-07 0 -7.80112e-08 3.02554e-07 4.9656e-09
917 7 0.001 0.0115784 0 -0.023253 1.79739e-07 0 -8.27205e-08 1.62404e-07 4.68556e-09
918 7 0.001 0.0119971 0 -0.0227738 1.83259e-07 0 -8.65275e-08 6.84302e-08 4.5023e-09
1065 8 0.001 0.0149242 0 -0.0238358 1.4077e-07 0 -6.09812e-08 2.451e-07 4.08083e-09
1066 8 0.001 0.0152282 0 -0.0232767 1.57641e-07 0 -6.87788e-08 1.51381e-07 3.91068e-09
1067 8 0.001 0.0155388 0 -0.0227212 1.71607e-07 0 -7.72093e-08 8.06722e-08 3.78469e-09
1215 9 0.001 0.0191011 0 -0.0235785 -1.78861e-07 0 7.89044e-08 7.50546e-08 3.91537e-09
1216 9 0.001 0.0192999 0 -0.0229739 -1.88171e-07 0 8.42953e-08 4.06627e-08 3.85383e-09
1365 10 0.001 0.0231883 0 -0.0234215 2.29762e-07 0 -7.07085e-09 5.69461e-09 3.18992e-09
1366 10 0.001 0.0232707 0 -0.0227903 2.33679e-07 0 -6.31064e-09 1.98157e-09 3.18388e-09
22 1 0.001 -0.0151086 0 -0.0222552 -4.48754e-07 0 2.40399e-07 1.36069e-06 5.7764e-09
23 1 0.001 -0.0145117 0 -0.022035 -4.41288e-07 0 2.20035e-07 1.12725e-06 5.27864e-09
24 1 0.001 -0.0139077 0 -0.0218349 -4.32703e-07 0 1.94363e-07 9.10816e-07 4.83722e-09
25 1 0.001 -0.013298 0 -0.021653 -4.23845e-07 0 1.64857e-07 7.13759e-07 4.4521e-09
26 1 0.001 -0.0126835 0 -0.0214873 -4.15446e-07 0 1.31782e-07 5.38115e-07 4.12233e-09
27 1 0.001 -0.0120654 0 -0.0213357 -4.07506e-07 0 9.68154e-08 3.85603e-07 3.84633e-09
28 1 0.001 -0.0114444 0 -0.0211962 -3.99653e-07 0 6.07821e-08 2.57642e-07 3.62219e-09
29 1 0.001 -0.0108213 0 -0.0210664 -3.92353e-07 0 2.44245e-08 1.55367e-07 3.44795e-09
30 1 0.001 -0.0101966 0 -0.0209442 -3.85622e-07 0 -1.25384e-08 7.96521e-08 3.32182e-09
175 2 0.001 -0.00761614 0 -0.0223665 -3.97765e-08 0 -6.69048e-08 1.17718e-07 3.70274e-09
176 2 0.001 -0.00700178 0 -0.0222001 -3.26636e-08 0 -9.48116e-08 4.46418e-08 3.53201e-09
177 2 0.001 -0.00638649 0 -0.0220371 -2.49933e-08 0 -1.2471e-07 1.33728e-08 3.42385e-09
178 2 0.001 -0.00577101 0 -0.0218748 -1.72861e-08 0 -1.5521e-07 1.79801e-08 3.35035e-09
179 2 0.001 -0.00515599 0 -0.0217107 -9.05345e-09 0 -1.86462e-07 5.12613e-08 3.2867e-09
180 2 0.001 -0.00454207 0 -0.0215425 -5.96801e-10 0 -2.17037e-07 1.06878e-07 3.25032e-09
181 2 0.001 -0.00392986 0 -0.0213682 7.41209e-09 0 -2.4685e-07 1.80842e-07 3.26913e-09
182 2 0.001 -0.00332002 0 -0.0211858 1.51205e-08 0 -2.74932e-07 2.72162e-07 3.36059e-09
183 2 0.001 -0.00271325 0 -0.0209935 2.34448e-08 0 -3.00929e-07 3.83138e-07 3.54226e-09
326 3 0.001 -0.00167397 0 -0.0224045 4.5373e-07 0 -2.4972e-07 1.01344e-07 4.29118e-09
327 3 0.001 -0.001077 0 -0.022184 4.52815e-07 0 -2.42238e-07 1.72621e-07 4.30076e-09
328 3 0.001 -0.000482959 0 -0.0219557 4.50194e-07 0 -2.30397e-07 2.53807e-07 4.32288e-09
329 3 0.001 0.000107394 0 -0.0217181 4.4603e-07 0 -2.1472e-07 3.43343e-07 4.3774e-09
330 3 0.001 0.000693262 0 -0.0214696 4.39498e-07 0 -1.95134e-07 4.43163e-07 4.49956e-09
331 3 0.001 0.00127379 0 -0.021209 4.30817e-07 0 -1.7189e-07 5.57906e-07 4.71137e-09
475 4 0.001 0.00272286 0 -0.0223598 3.00733e-07 0 -1.80278e-07 2.64263e-07 3.53946e-09
476 4 0.001 0.00329106 0 -0.022073 2.87756e-07 0 -1.55801e-07 3.68674e-07 3.65637e-09
477 4 0.001 0.00385366 0 -0.0217754 2.73904e-07 0 -1.30607e-07 4.78933e-07 3.81943e-09
478 4 0.001 0.00440961 0 -0.0214656 2.58881e-07 0 -1.05085e-07 5.96984e-07 4.05138e-09
479 4 0.001 0.00495783 0 -0.0211424 2.43076e-07 0 -7.90509e-08 7.27247e-07 4.36962e-09
623 5 0.001 0.00621432 0 -0.0223459 7.31856e-08 0 -9.75838e-08 2.66013e-07 3.86134e-09
624 5 0.001 0.00675006 0 -0.0220023 6.76878e-08 0 -8.94386e-08 3.94393e-07 4.06946e-09
625 5 0.001 0.00727886 0 -0.0216483 6.14491e-08 0 -8.03043e-08 5.27311e-07 4.29407e-09
626 5 0.001 0.00779939 0 -0.0212822 5.42405e-08 0 -7.03328e-08 6.62245e-07 4.53596e-09
771 6 0.001 0.00941773 0 -0.0222581 -5.91509e-08 0 -3.54475e-10 1.04765e-07 3.68367e-09
772 6 0.001 0.00991093 0 -0.0218558 -5.19862e-08 0 -9.79958e-09 2.18576e-07 3.86115e-09
773 6 0.001 0.0103983 0 -0.0214464 -4.37103e-08 0 -2.04056e-08 3.63379e-07 4.12775e-09
774 6 0.001 0.0108777 0 -0.021028 -3.38786e-08 0 -3.22222e-08 5.25773e-07 4.46272e-09
919 7 0.001 0.0124192 0 -0.0222976 1.85092e-07 0 -8.86097e-08 2.15436e-08 4.41221e-09
920 7 0.001 0.0128424 0 -0.0218224 1.86244e-07 0 -8.95566e-08 2.19428e-08 4.40782e-09
921 7 0.001 0.0132645 0 -0.0213461 1.87498e-07 0 -9.0729e-08 6.83669e-08 4.47802e-09
1068 8 0.001 0.0158542 0 -0.0221683 1.8236e-07 0 -8.35452e-08 3.35991e-08 3.70195e-09
1069 8 0.001 0.0161724 0 -0.0216171 1.89492e-07 0 -8.85845e-08 1.05693e-08 3.66179e-09
1070 8 0.001 0.0164914 0 -0.0210663 1.96197e-07 0 -9.32648e-08 1.17807e-08 3.66387e-09
1217 9 0.001 0.0195023 0 -0.0223705 -1.9187e-07 0 8.80834e-08 1.74124e-08 3.81248e-09
1218 9 0.001 0.019707 0 -0.0217678 -1.90293e-07 0 9.11001e-08 5.50455e-09 3.79138e-09
1219 9 0.001 0.0199125 0 -0.0211654 -1.84226e-07 0 9.20699e-08 5.04083e-09 3.79053e-09
1367 10 0.001 0.0233537 0 -0.0221591 2.33293e-07 0 -5.07172e-09 8.87601e-10 3.18208e-09
1368 10 0.001 0.0234366 0 -0.021528 2.28639e-07 0 -3.05622e-09 2.42182e-09 3.18453e-09
1369 10 0.001 0.0235188 0 -0.0208968 2.19078e-07 0 -6.23648e-10 6.57266e-09 3.19122e-09
31 1 0.001 -0.00957088 0 -0.0208272 -3.79011e-07 0 -5.0517e-08 3.11253e-08 3.24236e-09
32 1 0.001 -0.00894464 0 -0.0207132 -3.72418e-07 0 -8.88818e-08 1.0207e-08 3.20379e-09
33 1 0.001 -0.00831828 0 -0.0205997 -3.65637e-07 0 -1.2759e-07 1.75291e-08 3.19718e-09
34 1 0.001 -0.00769224 0 -0.0204845 -3.58722e-07 0 -1.66974e-07 5.49135e-08 3.2247e-09
35 1 0.001 -0.00706698 0 -0.0203651 -3.51793e-07 0 -2.0643e-07 1.26534e-07 3.29978e-09
36 1 0.001 -0.00644304 0 -0.0202392 -3.44305e-07 0 -2.45594e-07 2.39883e-07 3.43232e-09
37 1 0.001 -0.00582107 0 -0.0201039 -3.36627e-07 0 -2.83821e-07 4.0617e-07 3.64164e-09
38 1 0.001 -0.0052019 0 -0.0199566 -3.28435e-07 0 -3.21367e-07 6.40291e-07 3.97376e-09
39 1 0.001 -0.00458662 0 -0.019794 -3.19351e-07 0 -3.58326e-07 9.60132e-07 4.50002e-09
40 1 0.001 -0.00397664 0 -0.0196128 -3.09262e-07 0 -3.93698e-07 1.38497e-06 5.31927e-09
184 2 0.001 -0.00211034 0 -0.0207895 3.13131e-08 0 -3.24365e-07 5.19717e-07 3.8369e-09
185 2 0.001 -0.00151223 0 -0.020572 3.83178e-08 0 -3.4486e-07 6.92012e-07 4.26869e-09
186 2 0.001 -0.000920026 0 -0.0203391 4.50469e-08 0 -3.63472e-07 9.13941e-07 4.84443e-09
187 2 0.001 -0.000335104 0 -0.0200887 5.24951e-08 0 -3.81254e-07 1.20224e-06 5.57775e-09
188 2 0.001 0.000240821 0 -0.0198184 6.04349e-08 0 -3.98432e-07 1.57299e-06 6.53455e-09
189 2 0.001 0.00080561 0 -0.0195259 6.91939e-08 0 -4.14581e-07 2.03752e-06 7.80326e-09
332 3 0.001 0.00184802 0 -0.0209349 4.20181e-07 0 -1.45144e-07 6.94273e-07 5.00522e-09
333 3 0.001 0.00241486 0 -0.0206458 4.07527e-07 0 -1.16165e-07 8.61015e-07 5.39021e-09
334 3 0.001 0.00297302 0 -0.0203405 3.93471e-07 0 -8.59047e-08 1.06908e-06 5.90997e-09
335 3 0.001 0.00352094 0 -0.0200173 3.78541e-07 0 -5.58849e-08 1.33073e-06 6.60072e-09
336 3 0.001 0.00405677 0 -0.0196745 3.62452e-07 0 -2.76075e-08 1.65716e-06 7.49718e-09
480 4 0.001 0.00549715 0 -0.0208046 2.26331e-07 0 -5.27466e-08 8.75867e-07 4.78511e-09
481 4 0.001 0.00602626 0 -0.0204512 2.08512e-07 0 -2.67379e-08 1.05011e-06 5.30284e-09
482 4 0.001 0.00654367 0 -0.020081 1.89676e-07 0 -1.13112e-09 1.25731e-06 5.90709e-09
483 4 0.001 0.00704767 0 -0.0196928 1.70254e-07 0 2.36436e-08 1.50433e-06 6.59529e-09
627 5 0.001 0.00831032 0 -0.0209029 4.60165e-08 0 -5.97978e-08 8.01348e-07 4.80009e-09
628 5 0.001 0.00881032 0 -0.0205093 3.69936e-08 0 -4.8597e-08 9.49282e-07 5.10567e-09
629 5 0.001 0.00929799 0 -0.0201006 2.65741e-08 0 -3.63616e-08 1.11201e-06 5.48052e-09
630 5 0.001 0.00977179 0 -0.0196761 1.48373e-08 0 -2.33252e-08 1.29604e-06 5.94791e-09
775 6 0.001 0.0113475 0 -0.0205987 -2.22145e-08 0 -4.56001e-08 6.95318e-07 4.8381e-09
776 6 0.001 0.0118058 0 -0.0201573 -8.32874e-09 0 -6.06192e-08 8.65879e-07 5.23551e-09
777 6 0.001 0.0122508 0 -0.0197026 8.15585e-09 0 -7.73699e-08 1.03595e-06 5.63945e-09
922 7 0.001 0.013683 0 -0.0208667 1.88735e-07 0 -9.22139e-08 1.57464e-07 4.61622e-09
923 7 0.001 0.0140958 0 -0.0203824 1.90509e-07 0 -9.45745e-08 2.83633e-07 4.82732e-09
924 7 0.001 0.0145004 0 -0.0198914 1.93193e-07 0 -9.72855e-08 4.39693e-07 5.1214e-09
1071 8 0.001 0.0168094 0 -0.020515 2.01615e-07 0 -9.75905e-08 3.72243e-08 3.70821e-09
1072 8 0.001 0.0171244 0 -0.0199619 2.05474e-07 0 -1.0147e-07 8.66841e-08 3.79521e-09
1220 9 0.001 0.0201172 0 -0.0205628 -1.7504e-07 0 9.16245e-08 1.60243e-08 3.80992e-09
1221 9 0.001 0.0203199 0 -0.0199595 -1.63912e-07 0 8.89007e-08 3.83593e-08 3.84956e-09
1370 10 0.001 0.0235994 0 -0.0202654 2.06246e-07 0 2.12282e-09 1.33079e-08 3.20211e-09
1371 10 0.001 0.0236779 0 -0.0196337 1.90666e-07 0 4.86841e-09 2.2575e-08 3.21713e-09
41 1 0.001 -0.00337381 0 -0.0194095 -2.9817e-07 0 -4.26788e-07 1.93268e-06 6.55731e-09
42 1 0.001 -0.00278052 0 -0.0191803 -2.86375e-07 0 -4.5824e-07 2.61569e-06 8.35372e-09
43 1 0.001 -0.00219976 0 -0.0189214 -2.74207e-07 0 -4.87049e-07 3.43599e-06 1.08249e-08
44 1 0.001 -0.00163525 0 -0.0186294 -2.6195e-07 0 -5.12733e-07 4.38095e-06 1.4009e-08
45 1 0.001 -0.00109141 0 -0.018301 -2.50038e-07 0 -5.33854e-07 5.42432e-06 1.78818e-08
190 2 0.001 0.00135664 0 -0.0192085 7.85235e-08 0 -4.29884e-07 2.59906e-06 9.45345e-09
191 2 0.001 0.00189077 0 -0.0188637 8.77369e-08 0 -4.43849e-07 3.25143e-06 1.15408e-08
192 2 0.001 0.00240435 0 -0.0184894 9.68816e-08 0 -4.57213e-07 3.97917e-06 1.40416e-08
193 2 0.001 0.00289325 0 -0.0180837 1.06615e-07 0 -4.6968e-07 4.75984e-06 1.6883e-08
337 3 0.001 0.00457825 0 -0.0193106 3.46644e-07 0 -2.44111e-09 2.05482e-06 8.64475e-09
338 3 0.001 0.00508274 0 -0.0189236 3.322e-07 0 1.94717e-08 2.52319e-06 1.00635e-08
339 3 0.001 0.00556717 0 -0.0185119 3.18612e-07 0 3.78095e-08 3.05406e-06 1.17399e-08
340 3 0.001 0.00602814 0 -0.0180744 3.06169e-07 0 5.21924e-08 3.63315e-06 1.36733e-08
484 4 0.001 0.00753628 0 -0.0192856 1.50015e-07 0 4.7531e-08 1.79692e-06 7.4115e-09
485 4 0.001 0.00800724 0 -0.0188582 1.29125e-07 0 7.02231e-08 2.13815e-06 8.39765e-09
486 4 0.001 0.00845799 0 -0.0184097 1.07441e-07 0 9.17962e-08 2.52598e-06 9.56652e-09
631 5 0.001 0.01023 0 -0.0192348 1.63907e-09 0 -9.45818e-09 1.50727e-06 6.51095e-09
632 5 0.001 0.0106709 0 -0.0187763 -1.3309e-08 0 4.93468e-09 1.74984e-06 7.15525e-09
633 5 0.001 0.0110922 0 -0.0182998 -2.94333e-08 0 1.94882e-08 2.02537e-06 7.88467e-09
778 6 0.001 0.012681 0 -0.0192339 2.76248e-08 0 -9.60027e-08 1.20777e-06 6.0397e-09
779 6 0.001 0.0130947 0 -0.0187506 5.05717e-08 0 -1.16277e-07 1.38591e-06 6.45602e-09
780 6 0.001 0.0134901 0 -0.0182524 7.68836e-08 0 -1.37603e-07 1.57588e-06 6.91754e-09
925 7 0.001 0.0148948 0 -0.0193921 1.95572e-07 0 -9.97508e-08 6.17808e-07 5.49847e-09
926 7 0.001 0.0152767 0 -0.0188832 1.97604e-07 0 -1.01209e-07 8.10419e-07 5.9477e-09
927 7 0.001 0.0156439 0 -0.0183638 1.98557e-07 0 -1.02255e-07 1.01077e-06 6.44417e-09
1073 8 0.001 0.0174345 0 -0.0194061 2.06134e-07 0 -1.03365e-07 1.59733e-07 3.92554e-09
1074 8 0.001 0.0177377 0 -0.0188466 2.0497e-07 0 -1.03298e-07 2.55728e-07 4.10016e-09
1075 8 0.001 0.018032 0 -0.0182823 2.00522e-07 0 -1.01542e-07 3.73667e-07 4.31906e-09
1222 9 0.001 0.0205191 0 -0.019355 -1.51265e-07 0 8.46183e-08 7.18514e-08 3.90939e-09
1223 9 0.001 0.0207132 0 -0.0187489 -1.35684e-07 0 8.17481e-08 1.16207e-07 3.98935e-09
1224 9 0.001 0.0209009 0 -0.0181408 -1.18777e-07 0 7.96979e-08 1.71031e-07 4.08931e-09
1372 10 0.001 0.0237534 0 -0.0190016 1.72095e-07 0 7.90828e-09 3.43009e-08 3.2362e-09
1373 10 0.001 0.0238252 0 -0.0183691 1.50097e-07 0 1.12281e-08 4.8393e-08 3.2592e-09
46 1 0.001 -0.000573333 0 -0.0179338 -2.39823e-07 0 -5.4951e-07 6.53307e-06 2.24258e-08
47 1 0.001 -8.67473e-05 0 -0.0175263 -2.32069e-07 0 -5.60116e-07 7.67295e-06 2.76092e-08
48 1 0.001 0.000362167 0 -0.017078 -2.27365e-07 0 -5.6647e-07 8.80963e-06 3.33157e-08
49 1 0.001 0.000766939 0 -0.0165899 -2.27011e-07 0 -5.6881e-07 9.90633e-06 3.93313e-08
194 2 0.001 0.00335294 0 -0.0176454 1.17213e-07 0 -4.80656e-07 5.56918e-06 2.00484e-08
195 2 0.001 0.0037786 0 -0.0171744 1.28268e-07 0 -4.89595e-07 6.38402e-06 2.35059e-08
196 2 0.001 0.00416523 0 -0.016671 1.40226e-07 0 -4.97386e-07 7.18243e-06 2.71612e-08
341 3 0.001 0.00646188 0 -0.0176101 2.96806e-07 0 6.22853e-08 4.24191e-06 1.5828e-08
342 3 0.001 0.00686446 0 -0.0171188 2.91565e-07 0 6.87309e-08 4.86207e-06 1.81525e-08
343 3 0.001 0.00723178 0 -0.0166008 2.91683e-07 0 7.09485e-08 5.47654e-06 2.06112e-08
487 4 0.001 0.00888566 0 -0.0179393 8.5136e-08 0 1.11752e-07 2.9521e-06 1.08943e-08
488 4 0.001 0.00928716 0 -0.0174466 6.19968e-08 0 1.30223e-07 3.40371e-06 1.23435e-08
489 4 0.001 0.00965925 0 -0.0169314 3.824e-08 0 1.46883e-07 3.86649e-06 1.38856e-08
634 5 0.001 0.0114917 0 -0.0178051 -4.68344e-08 0 3.36581e-08 2.33215e-06 8.73278e-09
635 5 0.001 0.0118669 0 -0.0172917 -6.52231e-08 0 4.72279e-08 2.66479e-06 9.70506e-09
636 5 0.001 0.0122152 0 -0.0167599 -8.40562e-08 0 6.01775e-08 3.01432e-06 1.07587e-08
781 6 0.001 0.0138655 0 -0.0177389 1.06299e-07 0 -1.59551e-07 1.78231e-06 7.43665e-09
782 6 0.001 0.0142189 0 -0.0172102 1.38406e-07 0 -1.81932e-07 2.00771e-06 8.01138e-09
783 6 0.001 0.0145483 0 -0.0166663 1.72777e-07 0 -2.0384e-07 2.25194e-06 8.65694e-09