ITEM: TIMESTEP
1400000
ITEM: NUMBER OF ATOMS
6
ITEM: BOX BOUNDS pp pp ff
-2.5000000000000000e-01 2.5000000000000000e-01
-2.5000000000000000e-01 2.5000000000000000e-01
-1.0000000000000001e-01 1.0000000000000001e-01
ITEM: ATOMS id type radius x y z fx fy fz c_bendingE c_stretchingE
1 1 0.015 0 0 -0.0373041 0 0 4.98699 0 0.00569041
2 1 0.015 0 0 -0.0257138 0 0 39.3395 0 0.0856505
3 1 0.015 0 0 -0.00975244 0 0 -0.924706 0 0.132286
4 1 0.015 0 0 0.00506998 0 0 81.9145 0 0.488552
5 1 0.015 0 0 0.028994 0 0 -127.905 0 0.436413
6 1 0.015 0 0 0.0387063 0 0 2.58901 0 0.000186194
