ITEM: TIMESTEP
600000
ITEM: NUMBER OF ATOMS
1500
ITEM: BOX BOUNDS ff ff ff
-2.5000000000000001e-02 2.5000000000000001e-02
-5.0000000000000001e-03 5.0000000000000001e-03
-5.0000000000000003e-02 5.0000000000000003e-02
ITEM: ATOMS id type radius x y z fx fy fz c_bendingE c_stretchingE
1 1 0.001 -0.0225 0 -0.04636 0.0172362 0 -3.8e-09 1.00262e-08 1.59293e-34
2 1 0.001 -0.0225 0 -0.0457224 -0.0174927 0 -0.0141036 1.96692e-08 8.2548e-09
151 2 0.001 -0.0175 0 -0.04636 0.0507081 0 -3.8e-09 8.67828e-08 1.59293e-34
152 2 0.001 -0.0175 0 -0.0457224 -0.0506526 0 -0.0179193 1.72773e-07 1.33266e-08
301 3 0.001 -0.0125 0 -0.04636 0.0637887 0 -3.8e-09 1.37336e-07 1.59293e-34
302 3 0.001 -0.0125 0 -0.0457224 -0.0641231 0 -0.0108868 2.72299e-07 4.91168e-09
451 4 0.001 -0.0075 0 -0.04636 0.057189 0 -3.8e-09 1.10385e-07 1.59293e-34
452 4 0.001 -0.0075 0 -0.0457224 -0.056991 0 -0.00936616 2.20878e-07 3.643e-09
601 5 0.001 -0.0025 0 -0.04636 0.0426736 0 -3.8e-09 6.14596e-08 1.59293e-34
602 5 0.001 -0.0025 0 -0.0457224 -0.0423656 0 -0.00685206 1.23539e-07 1.95091e-09
751 6 0.001 0.0025 0 -0.04636 0.0400642 0 -3.8e-09 5.41729e-08 1.59293e-34
752 6 0.001 0.0025 0 -0.0457224 -0.0402262 0 -0.00414859 1.07767e-07 7.13584e-10
901 7 0.001 0.0075 0 -0.04636 0.04232 0 -3.8e-09 6.04451e-08 1.59293e-34
902 7 0.001 0.0075 0 -0.0457224 -0.0424354 0 -0.00600207 1.20332e-07 1.49432e-09
1051 8 0.001 0.0125 0 -0.04636 0.0373272 0 -3.8e-09 4.70238e-08 1.59293e-34
1052 8 0.001 0.0125 0 -0.0457224 -0.0370511 0 -0.00545584 9.45811e-08 1.23688e-09
1201 9 0.001 0.0175 0 -0.04636 0.0434968 0 -3.8e-09 6.38536e-08 1.59293e-34
1202 9 0.001 0.0175 0 -0.0457224 -0.0436442 0 -0.00525567 1.27064e-07 1.14546e-09
1351 10 0.001 0.0225 0 -0.04636 0.0294641 0 -3.8e-09 2.92986e-08 1.59293e-34
1352 10 0.001 0.0225 0 -0.0457224 -0.0290131 0 -0.0053023 5.93998e-08 1.16876e-09
3 1 0.001 -0.0225035 0 -0.0450872 3.61462e-06 0 -1.18276e-05 2.88562e-08 1.65212e-08
4 1 0.001 -0.0225104 0 -0.044452 1.23046e-05 0 -2.21453e-05 2.75052e-08 1.65562e-08
153 2 0.001 -0.0175102 0 -0.0450879 1.16371e-05 0 -4.31279e-06 2.57047e-07 2.66513e-08
154 2 0.001 -0.0175306 0 -0.0444536 3.14066e-05 0 -7.69741e-06 2.51998e-07 2.66475e-08
303 3 0.001 -0.0125129 0 -0.0450868 -2.86568e-06 0 4.62555e-07 4.03978e-07 9.81079e-09
304 3 0.001 -0.0125385 0 -0.0444515 -7.8688e-06 0 6.15079e-07 3.94154e-07 9.78145e-09
453 4 0.001 -0.00751155 0 -0.0450865 -1.25914e-07 0 -1.29063e-06 3.30822e-07 7.28618e-09
454 4 0.001 -0.00753466 0 -0.0444509 -1.17053e-06 0 -2.25115e-06 3.29179e-07 7.28487e-09
603 5 0.001 -0.00250863 0 -0.045086 -3.97979e-06 0 -8.47572e-07 1.85959e-07 3.90354e-09
604 5 0.001 -0.00252592 0 -0.0444498 -1.07818e-05 0 -1.18903e-06 1.86958e-07 3.90624e-09
753 6 0.001 0.0024919 0 -0.0450856 -2.32552e-07 0 2.12671e-07 1.60646e-07 1.42604e-09
754 6 0.001 0.00247573 0 -0.0444489 -1.01068e-06 0 2.96759e-07 1.58499e-07 1.42353e-09
903 7 0.001 0.00749144 0 -0.0450859 2.02661e-07 0 -1.99159e-07 1.79438e-07 2.98717e-09
904 7 0.001 0.00747437 0 -0.0444495 4.06448e-07 0 7.76171e-08 1.771e-07 2.98358e-09
1053 8 0.001 0.0124925 0 -0.0450858 -8.21521e-07 0 -2.96497e-07 1.42507e-07 2.47486e-09
1054 8 0.001 0.0124773 0 -0.0444493 -2.48108e-06 0 -9.57969e-08 1.43607e-07 2.47656e-09
1203 9 0.001 0.0174912 0 -0.0450858 -5.16309e-07 0 -4.3774e-07 1.89423e-07 2.28958e-09
1204 9 0.001 0.0174737 0 -0.0444493 -1.54996e-06 0 -4.92328e-07 1.86872e-07 2.28646e-09
1353 10 0.001 0.022494 0 -0.0450857 -7.92085e-07 0 -1.12635e-07 9.02102e-08 2.33914e-09
1354 10 0.001 0.022482 0 -0.0444492 -2.40762e-06 0 -7.71516e-08 9.23294e-08 2.34213e-09
5 1 0.001 -0.0225206 0 -0.0438168 2.47486e-05 0 -3.16211e-05 2.59899e-08 1.66144e-08
6 1 0.001 -0.022534 0 -0.0431817 3.87397e-05 0 -4.21157e-05 2.43686e-08 1.66966e-08
7 1 0.001 -0.0225506 0 -0.0425467 5.42828e-05 0 -5.31044e-05 2.27029e-08 1.68056e-08
155 2 0.001 -0.0175611 0 -0.0438197 5.2307e-05 0 -1.02131e-05 2.445e-07 2.6645e-08
156 2 0.001 -0.0176014 0 -0.0431864 7.25161e-05 0 -1.12884e-05 2.34901e-07 2.66437e-08
157 2 0.001 -0.0176515 0 -0.0425538 9.02244e-05 0 -1.07184e-05 2.23568e-07 2.66422e-08
305 3 0.001 -0.0125768 0 -0.0438169 -1.17996e-05 0 9.41671e-07 3.81693e-07 9.74358e-09
306 3 0.001 -0.0126274 0 -0.0431831 -1.38311e-05 0 1.01037e-06 3.66734e-07 9.69759e-09
307 3 0.001 -0.0126901 0 -0.0425504 -1.23627e-05 0 1.01613e-06 3.49477e-07 9.64469e-09
455 4 0.001 -0.00756928 0 -0.0438158 -4.21112e-06 0 -3.32768e-06 3.25574e-07 7.28013e-09
456 4 0.001 -0.00761535 0 -0.0431814 -9.31417e-06 0 -4.44388e-06 3.20018e-07 7.27176e-09
457 4 0.001 -0.00767274 0 -0.042548 -1.5855e-05 0 -5.76764e-06 3.12521e-07 7.25952e-09
605 5 0.001 -0.0025519 0 -0.0438139 -1.84167e-05 0 -1.79373e-06 1.8705e-07 3.9074e-09
606 5 0.001 -0.00258657 0 -0.0431784 -2.54024e-05 0 -2.68218e-06 1.86172e-07 3.907e-09
607 5 0.001 -0.00262989 0 -0.0425434 -3.04996e-05 0 -3.47476e-06 1.84276e-07 3.90492e-09
755 6 0.001 0.00245157 0 -0.0438124 -1.8035e-06 0 -1.3097e-07 1.55946e-07 1.42067e-09
756 6 0.001 0.00241947 0 -0.0431764 -2.52014e-06 0 -4.18912e-07 1.52995e-07 1.4176e-09
757 6 0.001 0.00237951 0 -0.0425407 -3.09066e-06 0 -1.46445e-07 1.49656e-07 1.41407e-09
905 7 0.001 0.00744885 0 -0.0438134 7.71103e-07 0 3.08899e-07 1.74115e-07 2.97873e-09
906 7 0.001 0.00741494 0 -0.0431778 1.17122e-06 0 2.92604e-07 1.70507e-07 2.97284e-09
907 7 0.001 0.00737275 0 -0.0425426 1.70104e-06 0 3.35966e-07 1.66308e-07 2.96606e-09
1055 8 0.001 0.0124546 0 -0.043813 -4.79758e-06 0 -1.93875e-07 1.44193e-07 2.47741e-09
1056 8 0.001 0.0124242 0 -0.0431771 -7.65728e-06 0 -6.44631e-07 1.44242e-07 2.47758e-09
1057 8 0.001 0.0123862 0 -0.0425415 -1.06561e-05 0 -9.6362e-07 1.43733e-07 2.47707e-09
1207 9 0.001 0.0173692 0 -0.0425421 -5.97984e-06 0 -1.96999e-06 1.75585e-07 2.27366e-09
1206 9 0.001 0.0174126 0 -0.0431774 -4.44202e-06 0 -1.58509e-06 1.79941e-07 2.27839e-09
1205 9 0.001 0.0174474 0 -0.0438131 -2.90064e-06 0 -9.05524e-07 1.83708e-07 2.28265e-09
1355 10 0.001 0.0224639 0 -0.0438127 -4.64373e-06 0 -2.30458e-07 9.41429e-08 2.34469e-09
1356 10 0.001 0.0224397 0 -0.0431765 -6.84763e-06 0 -3.7635e-07 9.56253e-08 2.34682e-09
1357 10 0.001 0.0224092 0 -0.0425405 -8.69283e-06 0 -2.90357e-07 9.67527e-08 2.34835e-09
8 1 0.001 -0.0225702 0 -0.0419118 6.91755e-05 0 -6.38734e-05 2.10508e-08 1.69423e-08
9 1 0.001 -0.0225927 0 -0.041277 8.05046e-05 0 -7.45242e-05 1.94611e-08 1.71071e-08
158 2 0.001 -0.017711 0 -0.041922 0.000102187 0 -8.84627e-06 2.10859e-07 2.66383e-08
159 2 0.001 -0.0177796 0 -0.0412911 0.000108108 0 -7.26621e-06 1.97093e-07 2.66312e-08
308 3 0.001 -0.0127647 0 -0.041919 -6.09745e-06 0 1.61199e-06 3.30196e-07 9.58611e-09
309 3 0.001 -0.0128507 0 -0.041289 5.34934e-06 0 2.29138e-06 3.09243e-07 9.52377e-09
458 4 0.001 -0.00774132 0 -0.0419157 -2.28383e-05 0 -7.30145e-06 3.03108e-07 7.24332e-09
459 4 0.001 -0.00782088 0 -0.0412846 -2.89021e-05 0 -8.55447e-06 2.91829e-07 7.22293e-09
608 5 0.001 -0.00268182 0 -0.0419091 -3.29307e-05 0 -4.09252e-06 1.81341e-07 3.901e-09
609 5 0.001 -0.00274229 0 -0.0412755 -3.2312e-05 0 -4.36131e-06 1.77378e-07 3.89517e-09
759 6 0.001 0.00227643 0 -0.0412711 -4.40883e-06 0 5.22608e-07 1.41873e-07 1.405e-09
758 6 0.001 0.0023318 0 -0.0419056 -3.63563e-06 0 2.16905e-07 1.45943e-07 1.40987e-09
908 7 0.001 0.00732238 0 -0.041908 2.67472e-06 0 4.72154e-07 1.61556e-07 2.95842e-09
909 7 0.001 0.00726395 0 -0.0412741 3.91711e-06 0 8.49302e-07 1.56294e-07 2.94987e-09
1058 8 0.001 0.0123406 0 -0.0419065 -1.34796e-05 0 -1.08416e-06 1.42648e-07 2.47566e-09
1059 8 0.001 0.0122874 0 -0.041272 -1.6181e-05 0 -1.07998e-06 1.40975e-07 2.47312e-09
1209 9 0.001 0.0172574 0 -0.0412736 -8.45631e-06 0 -2.33769e-06 1.65184e-07 2.26207e-09
1208 9 0.001 0.0173175 0 -0.0419075 -7.33662e-06 0 -2.15199e-06 1.70658e-07 2.26825e-09
1358 10 0.001 0.0223725 0 -0.0419049 -1.00232e-05 0 -3.39712e-07 9.75053e-08 2.3492e-09
1359 10 0.001 0.0223295 0 -0.0412696 -1.08553e-05 0 -6.9703e-07 9.78689e-08 2.34954e-09
10 1 0.001 -0.022618 0 -0.0406423 8.72696e-05 0 -8.41161e-05 1.79676e-08 1.72989e-08
11 1 0.001 -0.022646 0 -0.0400077 8.91067e-05 0 -9.17005e-05 1.65872e-08 1.75142e-08
160 2 0.001 -0.0178571 0 -0.0406612 0.000108288 0 -5.33148e-06 1.82542e-07 2.66207e-08
161 2 0.001 -0.0179431 0 -0.0400325 0.000103195 0 -2.10817e-06 1.67436e-07 2.66032e-08
162 2 0.001 -0.0180372 0 -0.0394049 9.3597e-05 0 2.03091e-06 1.51968e-07 2.6574e-08
312 3 0.001 -0.0131732 0 -0.0394092 4.74276e-05 0 4.39371e-06 2.40558e-07 9.33989e-09
311 3 0.001 -0.0130554 0 -0.0400341 3.49842e-05 0 4.00272e-06 2.63991e-07 9.39881e-09
310 3 0.001 -0.0129477 0 -0.0406607 2.05492e-05 0 2.82575e-06 2.87028e-07 9.46066e-09
460 4 0.001 -0.00791121 0 -0.0406551 -3.31779e-05 0 -9.6824e-06 2.78771e-07 7.19822e-09
461 4 0.001 -0.00801202 0 -0.0400271 -3.42718e-05 0 -9.64295e-06 2.64071e-07 7.16892e-09
462 4 0.001 -0.00812302 0 -0.0394008 -3.14171e-05 0 -9.87651e-06 2.47923e-07 7.1357e-09
610 5 0.001 -0.00281117 0 -0.0406428 -2.84449e-05 0 -4.4081e-06 1.72437e-07 3.88755e-09
611 5 0.001 -0.00288835 0 -0.0400111 -2.22787e-05 0 -3.15168e-06 1.66602e-07 3.87791e-09
761 6 0.001 0.00214318 0 -0.0400043 -5.5002e-06 0 1.31201e-06 1.32739e-07 1.39352e-09
760 6 0.001 0.00221351 0 -0.0406373 -5.01792e-06 0 5.1024e-07 1.37465e-07 1.39959e-09
910 7 0.001 0.00719762 0 -0.0406409 5.39493e-06 0 1.17099e-06 1.50571e-07 2.94046e-09
911 7 0.001 0.00712354 0 -0.0400087 7.00378e-06 0 2.39591e-06 1.44442e-07 2.9299e-09
1060 8 0.001 0.0122267 0 -0.0406383 -1.85873e-05 0 -1.35432e-06 1.38708e-07 2.46948e-09
1061 8 0.001 0.0121585 0 -0.0400052 -2.04387e-05 0 -8.45936e-07 1.35847e-07 2.4645e-09
1210 9 0.001 0.0171893 0 -0.0406406 -9.38629e-06 0 -2.8582e-06 1.59194e-07 2.25532e-09
1211 9 0.001 0.0171132 0 -0.0400084 -1.01877e-05 0 -2.49337e-06 1.52725e-07 2.24781e-09
1360 10 0.001 0.0222802 0 -0.0406348 -1.14566e-05 0 -1.19078e-06 9.78348e-08 2.34956e-09
1361 10 0.001 0.0222247 0 -0.0400005 -1.1695e-05 0 -5.02283e-07 9.73995e-08 2.34881e-09
12 1 0.001 -0.0226765 0 -0.0393733 8.33679e-05 0 -9.78987e-05 1.53195e-08 1.77485e-08
13 1 0.001 -0.0227096 0 -0.038739 7.31907e-05 0 -0.000103994 1.41497e-08 1.79994e-08
14 1 0.001 -0.022745 0 -0.0381049 5.97216e-05 0 -0.000110258 1.30523e-08 1.82667e-08
163 2 0.001 -0.018139 0 -0.0387785 8.14808e-05 0 7.38519e-06 1.3631e-07 2.65284e-08
164 2 0.001 -0.0182481 0 -0.0381533 6.72754e-05 0 1.43916e-05 1.20628e-07 2.64609e-08
314 3 0.001 -0.0134373 0 -0.0381653 6.25606e-05 0 3.59148e-06 1.93991e-07 9.23801e-09
313 3 0.001 -0.0133007 0 -0.0387863 5.75394e-05 0 4.24776e-06 2.17115e-07 9.286e-09
464 4 0.001 -0.00837414 0 -0.0381537 -1.55717e-05 0 -6.40536e-06 2.12337e-07 7.06099e-09
463 4 0.001 -0.00824385 0 -0.0387763 -2.49239e-05 0 -9.0682e-06 2.3058e-07 7.09978e-09
612 5 0.001 -0.00297367 0 -0.0393804 -1.44612e-05 0 -2.35034e-06 1.59983e-07 3.86642e-09
613 5 0.001 -0.00306695 0 -0.0387508 -6.02625e-06 0 -1.67262e-06 1.52708e-07 3.85403e-09
614 5 0.001 -0.003168 0 -0.0381224 1.54948e-06 0 -5.34138e-07 1.44909e-07 3.84101e-09
762 6 0.001 0.00206557 0 -0.0393722 -5.52334e-06 0 1.18676e-06 1.27721e-07 1.38685e-09
764 6 0.001 0.00188913 0 -0.0381106 -4.44357e-06 0 2.00605e-06 1.16927e-07 1.37264e-09
763 6 0.001 0.00198084 0 -0.0387409 -5.03525e-06 0 1.06453e-06 1.22439e-07 1.37999e-09
912 7 0.001 0.00704187 0 -0.0393773 8.6418e-06 0 2.76084e-06 1.37962e-07 2.91833e-09
913 7 0.001 0.00695281 0 -0.038747 9.92734e-06 0 2.81124e-06 1.3119e-07 2.90642e-09
914 7 0.001 0.00685654 0 -0.0381177 1.07859e-05 0 3.36607e-06 1.24182e-07 2.89415e-09
1062 8 0.001 0.012083 0 -0.039373 -2.17223e-05 0 -1.09587e-06 1.32406e-07 2.45821e-09
1063 8 0.001 0.0120002 0 -0.0387418 -2.2509e-05 0 -1.49947e-06 1.28404e-07 2.45108e-09
1064 8 0.001 0.0119103 0 -0.0381115 -2.27814e-05 0 -1.16976e-06 1.23872e-07 2.44296e-09
1212 9 0.001 0.0170292 0 -0.0393773 -1.03247e-05 0 -2.66997e-06 1.4582e-07 2.23948e-09
1214 9 0.001 0.0168388 0 -0.0381182 -9.77107e-06 0 -2.69982e-06 1.30908e-07 2.22152e-09
1213 9 0.001 0.0169377 0 -0.0387472 -1.01108e-05 0 -2.97852e-06 1.38529e-07 2.23074e-09
1364 10 0.001 0.0220207 0 -0.0381014 -9.61205e-06 0 -6.02223e-07 9.37405e-08 2.34245e-09
1363 10 0.001 0.0220949 0 -0.0387338 -1.06185e-05 0 -9.16934e-07 9.53412e-08 2.34504e-09
1362 10 0.001 0.0221629 0 -0.0393669 -1.14099e-05 0 -5.56762e-07 9.65656e-08 2.34713e-09
15 1 0.001 -0.0227827 0 -0.0374709 4.35457e-05 0 -0.000115497 1.19978e-08 1.85487e-08
16 1 0.001 -0.0228225 0 -0.0368371 2.85814e-05 0 -0.000119047 1.09577e-08 1.88418e-08
165 2 0.001 -0.0183641 0 -0.0375294 5.36133e-05 0 2.26405e-05 1.05092e-07 2.63669e-08
166 2 0.001 -0.0184864 0 -0.0369066 3.95784e-05 0 3.26942e-05 8.98862e-08 2.62421e-08
315 3 0.001 -0.0135825 0 -0.0375463 6.36898e-05 0 1.06094e-06 1.71457e-07 9.19713e-09
316 3 0.001 -0.0137358 0 -0.0369292 6.02097e-05 0 -2.05427e-06 1.49723e-07 9.16423e-09
466 4 0.001 -0.00866142 0 -0.0369145 1.00156e-05 0 -7.11285e-07 1.74479e-07 6.97855e-09
465 4 0.001 -0.00851347 0 -0.0375331 -3.76846e-06 0 -3.60127e-06 1.93523e-07 7.01994e-09
615 5 0.001 -0.00327659 0 -0.0374953 7.77149e-06 0 -2.34716e-07 1.36715e-07 3.8278e-09
616 5 0.001 -0.00339249 0 -0.0368695 1.199e-05 0 -1.67266e-07 1.28238e-07 3.81504e-09
765 6 0.001 0.00179063 0 -0.0374814 -3.7485e-06 0 2.30074e-06 1.11221e-07 1.36472e-09
766 6 0.001 0.00168551 0 -0.0368532 -3.26434e-06 0 2.07561e-06 1.05358e-07 1.35668e-09
916 7 0.001 0.00664324 0 -0.0368625 1.16019e-05 0 3.27636e-06 1.09669e-07 2.86909e-09
915 7 0.001 0.00675328 0 -0.0374895 1.13075e-05 0 3.33422e-06 1.16991e-07 2.88159e-09
1065 8 0.001 0.0118133 0 -0.0374822 -2.27076e-05 0 -1.44666e-06 1.18847e-07 2.43389e-09
1066 8 0.001 0.0117096 0 -0.036854 -2.25438e-05 0 -1.76809e-06 1.13375e-07 2.42426e-09
1215 9 0.001 0.0167326 0 -0.0374903 -9.11717e-06 0 -3.14578e-06 1.23016e-07 2.212e-09
1216 9 0.001 0.0166196 0 -0.0368637 -8.22535e-06 0 -3.5688e-06 1.14917e-07 2.20261e-09
1366 10 0.001 0.0218541 0 -0.036839 -7.28184e-06 0 -9.0834e-07 8.94874e-08 2.33595e-09
1365 10 0.001 0.0219404 0 -0.0374698 -8.43513e-06 0 -7.69558e-07 9.17819e-08 2.33933e-09
17 1 0.001 -0.0228645 0 -0.0362034 1.2132e-05 0 -0.000122021 9.90754e-09 1.91429e-08
18 1 0.001 -0.0229085 0 -0.0355698 -3.70581e-06 0 -0.000122718 8.82994e-09 1.94483e-08
19 1 0.001 -0.0229543 0 -0.0349365 -1.70323e-05 0 -0.000121189 7.71634e-09 1.97521e-08
169 2 0.001 -0.0188867 0 -0.0350453 1.00707e-05 0 6.24567e-05 4.83282e-08 2.56801e-08
167 2 0.001 -0.0186146 0 -0.0362851 2.819e-05 0 4.32073e-05 7.52123e-08 2.60844e-08
168 2 0.001 -0.0187482 0 -0.0356647 1.90848e-05 0 5.31752e-05 6.12856e-08 2.58959e-08
317 3 0.001 -0.0138966 0 -0.0363141 5.31937e-05 0 -5.92047e-06 1.28954e-07 9.13886e-09
319 3 0.001 -0.0142386 0 -0.0350892 4.01381e-05 0 -1.4718e-05 9.08586e-08 9.11296e-09
318 3 0.001 -0.0140644 0 -0.0357008 4.63566e-05 0 -1.06613e-05 1.0929e-07 9.12167e-09
467 4 0.001 -0.0088175 0 -0.0362979 2.51715e-05 0 3.05745e-06 1.55544e-07 6.9381e-09
469 4 0.001 -0.00915216 0 -0.0350706 5.40175e-05 0 1.16196e-05 1.19244e-07 6.86232e-09
468 4 0.001 -0.00898125 0 -0.0356833 4.0421e-05 0 7.27493e-06 1.37037e-07 6.8992e-09
619 5 0.001 -0.00378156 0 -0.0350002 1.25804e-05 0 -5.65304e-07 1.02009e-07 3.77842e-09
617 5 0.001 -0.00351546 0 -0.036245 1.37983e-05 0 1.87951e-08 1.19577e-07 3.8026e-09
618 5 0.001 -0.00364524 0 -0.0356219 1.37442e-05 0 -1.83564e-07 1.10812e-07 3.79037e-09
767 6 0.001 0.00157395 0 -0.0362262 -3.20193e-06 0 2.00536e-06 9.93729e-08 1.34865e-09
769 6 0.001 0.00133234 0 -0.0349755 -3.62205e-06 0 2.0528e-06 8.71722e-08 1.33239e-09
768 6 0.001 0.00145616 0 -0.0356002 -3.34908e-06 0 1.9304e-06 9.33e-08 1.34057e-09
917 7 0.001 0.00652665 0 -0.0362367 1.21906e-05 0 3.66091e-06 1.02268e-07 2.85654e-09
919 7 0.001 0.00627478 0 -0.0349886 1.37716e-05 0 4.13112e-06 8.74334e-08 2.83149e-09
918 7 0.001 0.00640375 0 -0.035612 1.32085e-05 0 3.89228e-06 9.48391e-08 2.84396e-09
1069 8 0.001 0.011359 0 -0.0349765 -2.05955e-05 0 -1.63452e-06 9.48074e-08 2.392e-09
1067 8 0.001 0.0115991 0 -0.036227 -2.22012e-05 0 -1.72824e-06 1.07507e-07 2.41405e-09
1068 8 0.001 0.0114822 0 -0.0356011 -2.15579e-05 0 -1.78037e-06 1.01298e-07 2.40326e-09
1217 9 0.001 0.0164998 0 -0.0362384 -7.212e-06 0 -3.39589e-06 1.06677e-07 2.19323e-09
1219 9 0.001 0.0162413 0 -0.0349914 -4.47475e-06 0 -2.84109e-06 9.00415e-08 2.17419e-09
1218 9 0.001 0.0163736 0 -0.0356143 -5.97047e-06 0 -3.18617e-06 9.83622e-08 2.18373e-09
1367 10 0.001 0.0217618 0 -0.036209 -6.2515e-06 0 -8.93258e-07 8.68811e-08 2.33226e-09
1369 10 0.001 0.0215597 0 -0.0349517 -3.87895e-06 0 -3.94198e-07 8.08405e-08 2.32379e-09
1368 10 0.001 0.0216636 0 -0.0355799 -4.97401e-06 0 -8.25137e-07 8.39894e-08 2.32825e-09
20 1 0.001 -0.0230019 0 -0.0343032 -3.02291e-05 0 -0.000118527 6.56899e-09 2.005e-08
21 1 0.001 -0.0230511 0 -0.0336702 -4.26296e-05 0 -0.000114013 5.40158e-09 2.0338e-08
171 2 0.001 -0.0191758 0 -0.0338093 -8.3785e-06 0 7.87672e-05 2.61736e-08 2.5179e-08
170 2 0.001 -0.0190293 0 -0.0344269 1.56629e-06 0 7.1096e-05 3.65571e-08 2.54402e-08
321 3 0.001 -0.0146037 0 -0.0338711 2.62578e-05 0 -2.14482e-05 5.82088e-08 9.11761e-09
320 3 0.001 -0.0144185 0 -0.0344794 3.30064e-05 0 -1.86355e-05 7.37889e-08 9.11197e-09
471 4 0.001 -0.00951345 0 -0.0338508 7.06438e-05 0 1.59704e-05 8.66768e-08 6.79868e-09
470 4 0.001 -0.00932973 0 -0.0344598 6.46185e-05 0 1.44871e-05 1.02398e-07 6.82844e-09
621 5 0.001 -0.0040727 0 -0.0337611 8.44454e-06 0 -1.8962e-06 8.45223e-08 3.75583e-09
620 5 0.001 -0.00392415 0 -0.0343799 1.07072e-05 0 -1.31057e-06 9.32276e-08 3.76689e-09
770 6 0.001 0.0012027 0 -0.0343519 -3.83486e-06 0 1.79404e-06 8.10221e-08 1.32421e-09
771 6 0.001 0.00106747 0 -0.0337295 -4.1926e-06 0 1.82158e-06 7.48822e-08 1.31608e-09
920 7 0.001 0.00614 0 -0.0343664 1.37796e-05 0 4.12245e-06 8.01e-08 2.81924e-09
921 7 0.001 0.00599967 0 -0.0337455 1.32786e-05 0 4.27355e-06 7.28833e-08 2.8072e-09
1071 8 0.001 0.0110946 0 -0.0337309 -1.7947e-05 0 -1.09795e-06 8.12432e-08 2.36842e-09
1070 8 0.001 0.0112297 0 -0.0343531 -1.9259e-05 0 -1.50335e-06 8.81001e-08 2.38037e-09
1220 9 0.001 0.016103 0 -0.0343699 -2.86661e-06 0 -2.71451e-06 8.1783e-08 2.1648e-09
1221 9 0.001 0.0159591 0 -0.0337496 -1.31219e-06 0 -2.23391e-06 7.36534e-08 2.15562e-09
1371 10 0.001 0.0213352 0 -0.0336983 -3.06075e-06 0 -2.7531e-07 7.38862e-08 2.31376e-09
1370 10 0.001 0.0214502 0 -0.0343245 -3.16544e-06 0 -3.38098e-07 7.74634e-08 2.31892e-09
22 1 0.001 -0.0231018 0 -0.0330372 -5.13761e-05 0 -0.000108347 4.23987e-09 2.06123e-08
23 1 0.001 -0.0231538 0 -0.0324044 -5.58817e-05 0 -0.000101343 3.12276e-09 2.08702e-08
172 2 0.001 -0.0193253 0 -0.0331925 -1.84206e-05 0 8.58916e-05 1.73602e-08 2.4899e-08
174 2 0.001 -0.0196313 0 -0.0319604 -4.4565e-05 0 9.37195e-05 5.06564e-09 2.42994e-08
173 2 0.001 -0.0194773 0 -0.0325762 -3.11082e-05 0 9.07601e-05 1.02773e-08 2.46041e-08
322 3 0.001 -0.0147935 0 -0.0332642 2.03061e-05 0 -2.41032e-05 4.42446e-08 9.12923e-09
324 3 0.001 -0.0151844 0 -0.0320541 1.4676e-05 0 -2.82394e-05 2.16657e-08 9.17298e-09
323 3 0.001 -0.0149872 0 -0.0326586 1.62207e-05 0 -2.67097e-05 3.20224e-08 9.14752e-09
474 4 0.001 -0.0100964 0 -0.0320338 4.8705e-05 0 8.40494e-06 4.7121e-08 6.73544e-09
473 4 0.001 -0.00989729 0 -0.032638 6.28241e-05 0 1.30598e-05 5.90032e-08 6.75259e-09
472 4 0.001 -0.00970281 0 -0.0332436 7.02807e-05 0 1.53694e-05 7.21927e-08 6.7735e-09
624 5 0.001 -0.00455115 0 -0.0319126 4.79251e-06 0 -2.59769e-06 5.94203e-08 3.72471e-09
623 5 0.001 -0.00438651 0 -0.0325274 5.47407e-06 0 -2.46969e-06 6.75604e-08 3.73476e-09
622 5 0.001 -0.00422692 0 -0.0331436 6.69919e-06 0 -2.39257e-06 7.59477e-08 3.74514e-09
774 6 0.001 0.000630477 0 -0.0318694 -7.46715e-06 0 1.08724e-06 5.68342e-08 1.29169e-09
773 6 0.001 0.000781117 0 -0.0324882 -6.03794e-06 0 1.66602e-06 6.27586e-08 1.29973e-09
772 6 0.001 0.00092686 0 -0.0331083 -4.91257e-06 0 1.83231e-06 6.87842e-08 1.30791e-09
922 7 0.001 0.00585406 0 -0.0331257 1.19296e-05 0 4.15223e-06 6.58231e-08 2.79531e-09
924 7 0.001 0.00554807 0 -0.0318898 7.88038e-06 0 3.67768e-06 5.23125e-08 2.77199e-09
923 7 0.001 0.00570343 0 -0.0325072 1.01103e-05 0 4.12614e-06 5.89553e-08 2.78355e-09
1072 8 0.001 0.0109539 0 -0.0331099 -1.65955e-05 0 -8.43025e-07 7.43049e-08 2.35621e-09
1074 8 0.001 0.0106567 0 -0.0318717 -1.38533e-05 0 -3.37013e-07 6.04559e-08 2.33164e-09
1073 8 0.001 0.0108078 0 -0.0324902 -1.53178e-05 0 -5.0306e-07 6.73534e-08 2.34389e-09
1224 9 0.001 0.0154969 0 -0.0318962 3.36266e-06 0 -8.28974e-07 5.06658e-08 2.12942e-09
1223 9 0.001 0.0156558 0 -0.0325128 1.86686e-06 0 -1.11315e-06 5.80356e-08 2.13782e-09
1222 9 0.001 0.01581 0 -0.0331306 3.1139e-07 0 -1.71938e-06 6.57173e-08 2.14661e-09
1374 10 0.001 0.0209584 0 -0.0318257 -4.72506e-06 0 -1.17626e-07 6.2216e-08 2.29639e-09
1372 10 0.001 0.0212148 0 -0.0330731 -3.39778e-06 0 -3.37439e-07 7.01356e-08 2.30832e-09
1373 10 0.001 0.0210891 0 -0.0324489 -3.96739e-06 0 -2.08161e-07 6.6237e-08 2.30256e-09
24 1 0.001 -0.0232069 0 -0.0317717 -5.74233e-05 0 -9.31009e-05 2.1009e-09 2.11091e-08
26 1 0.001 -0.0233156 0 -0.0305065 -4.58547e-05 0 -7.16231e-05 5.7962e-10 2.15163e-08
25 1 0.001 -0.0232609 0 -0.031139 -5.30078e-05 0 -8.27953e-05 1.23299e-09 2.13254e-08
175 2 0.001 -0.0197866 0 -0.031345 -6.03372e-05 0 9.56148e-05 1.84858e-09 2.39888e-08
176 2 0.001 -0.0199425 0 -0.0307297 -7.77764e-05 0 9.4796e-05 7.38771e-10 2.36765e-08
326 3 0.001 -0.0155863 0 -0.0308477 9.98402e-06 0 -3.09089e-05 6.98799e-09 9.24404e-09
325 3 0.001 -0.0153843 0 -0.0314505 1.25493e-05 0 -2.93322e-05 1.32884e-08 9.20515e-09
476 4 0.001 -0.0105065 0 -0.0308296 5.67152e-06 0 -7.45993e-06 2.72225e-08 6.71326e-09
475 4 0.001 -0.0102996 0 -0.0314311 2.90263e-05 0 1.12124e-06 3.65331e-08 6.7223e-09
626 5 0.001 -0.00489425 0 -0.0306868 5.41559e-06 0 -3.32713e-06 4.41276e-08 3.70741e-09
625 5 0.001 -0.0047205 0 -0.0312991 4.7246e-06 0 -3.09701e-06 5.15887e-08 3.71548e-09
776 6 0.001 0.000315495 0 -0.0306351 -1.1509e-05 0 -5.28526e-07 4.53975e-08 1.27662e-09
775 6 0.001 0.000475186 0 -0.0312517 -9.28184e-06 0 1.71046e-07 5.10383e-08 1.28399e-09
926 7 0.001 0.00522429 0 -0.0306584 2.18024e-06 0 1.58035e-06 3.98219e-08 2.75088e-09
925 7 0.001 0.00538826 0 -0.0312736 5.2354e-06 0 2.53332e-06 4.59251e-08 2.76106e-09
1076 8 0.001 0.0103403 0 -0.0306382 -1.0995e-05 0 -5.59294e-07 4.70847e-08 2.30861e-09
1075 8 0.001 0.0105008 0 -0.0312544 -1.23148e-05 0 -5.2161e-07 5.36785e-08 2.31982e-09
1226 9 0.001 0.0151664 0 -0.0306664 6.01304e-06 0 -8.57863e-07 3.70664e-08 2.11504e-09
1225 9 0.001 0.0153337 0 -0.0312807 4.78508e-06 0 -9.75145e-07 4.36602e-08 2.12179e-09
1376 10 0.001 0.0206825 0 -0.0305826 -7.68783e-06 0 -1.37624e-06 5.39063e-08 2.28381e-09
1375 10 0.001 0.0208228 0 -0.0312036 -5.8985e-06 0 -5.49897e-07 5.80977e-08 2.29004e-09
28 1 0.001 -0.023426 0 -0.0292415 -2.36497e-05 0 -4.72004e-05 1.29601e-10 2.18159e-08
27 1 0.001 -0.0233707 0 -0.029874 -3.59251e-05 0 -5.96587e-05 1.96957e-10 2.16802e-08
179 2 0.001 -0.0204078 0 -0.0288829 -0.000107769 0 8.45677e-05 1.10711e-08 2.28009e-08
177 2 0.001 -0.0200984 0 -0.0301143 -9.26667e-05 0 9.15046e-05 1.84233e-09 2.33704e-08
178 2 0.001 -0.0202538 0 -0.0294988 -0.000103566 0 8.78674e-05 5.25872e-09 2.30772e-08
329 3 0.001 -0.0161989 0 -0.0290412 6.14655e-06 0 -3.35683e-05 1.20298e-09 9.40224e-09
328 3 0.001 -0.0159943 0 -0.0296432 6.01342e-06 0 -3.2649e-05 9.0204e-10 9.3426e-09
327 3 0.001 -0.0157898 0 -0.0302453 7.8088e-06 0 -3.21825e-05 2.84089e-09 9.29003e-09
477 4 0.001 -0.0107164 0 -0.0302291 -1.88942e-05 0 -1.64631e-05 1.91885e-08 6.70791e-09
479 4 0.001 -0.0111435 0 -0.0290308 -6.2285e-05 0 -3.27939e-05 7.12264e-09 6.7074e-09
478 4 0.001 -0.0109289 0 -0.0296296 -4.26649e-05 0 -2.50079e-05 1.24636e-08 6.70585e-09
629 5 0.001 -0.00543839 0 -0.0288566 9.82837e-06 0 -2.54656e-06 2.45653e-08 3.68948e-09
628 5 0.001 -0.00525354 0 -0.0294656 8.12069e-06 0 -2.54619e-06 3.05595e-08 3.69434e-09
627 5 0.001 -0.00507204 0 -0.0300756 6.65775e-06 0 -3.05866e-06 3.70983e-08 3.70042e-09
778 6 0.001 -1.60423e-05 0 -0.0294051 -1.64068e-05 0 -2.21345e-06 3.46876e-08 1.26267e-09
777 6 0.001 0.000151665 0 -0.0300196 -1.38736e-05 0 -1.34968e-06 3.99382e-08 1.2695e-09
779 6 0.001 -0.000187355 0 -0.0287917 -1.87539e-05 0 -3.46982e-06 2.96743e-08 1.25628e-09
929 7 0.001 0.00471038 0 -0.028819 -5.93318e-06 0 -8.88346e-07 2.35108e-08 2.7235e-09
928 7 0.001 0.00488505 0 -0.0294312 -3.69732e-06 0 1.81326e-07 2.8584e-08 2.73203e-09
927 7 0.001 0.00505645 0 -0.0300443 -8.87469e-07 0 8.00352e-07 3.40316e-08 2.74125e-09
1079 8 0.001 0.00983499 0 -0.0287961 -6.82954e-06 0 -3.08315e-07 2.89952e-08 2.27828e-09
1078 8 0.001 0.0100071 0 -0.0294091 -8.50693e-06 0 -8.79452e-08 3.46873e-08 2.28771e-09
1077 8 0.001 0.0101757 0 -0.0300231 -9.83138e-06 0 -3.94608e-07 4.07352e-08 2.29793e-09
1227 9 0.001 0.0149954 0 -0.030053 6.98104e-06 0 -5.31423e-07 3.09266e-08 2.10899e-09
1229 9 0.001 0.0146435 0 -0.0288291 8.68824e-06 0 -6.39229e-07 2.01522e-08 2.09913e-09
1228 9 0.001 0.014821 0 -0.0294406 7.85391e-06 0 -2.1303e-07 2.52779e-08 2.10357e-09
1378 10 0.001 0.0203883 0 -0.0293436 -1.20744e-05 0 -2.71694e-06 4.5399e-08 2.27179e-09
1377 10 0.001 0.0205376 0 -0.0299626 -9.78151e-06 0 -2.16863e-06 4.96655e-08 2.27778e-09
31 1 0.001 -0.0235904 0 -0.0273439 -4.10536e-06 0 -1.04157e-05 2.01599e-09 2.20448e-08
30 1 0.001 -0.0235361 0 -0.0279765 -7.27053e-06 0 -2.21623e-05 1.03625e-09 2.19981e-08
29 1 0.001 -0.0234812 0 -0.028609 -1.26316e-05 0 -3.42478e-05 4.05801e-10 2.1922e-08
181 2 0.001 -0.0207093 0 -0.0276496 -8.62517e-05 0 7.82275e-05 2.99926e-08 2.23203e-08
180 2 0.001 -0.0205598 0 -0.0282666 -0.000100783 0 8.17038e-05 1.93233e-08 2.25466e-08
331 3 0.001 -0.0166063 0 -0.0278367 1.00836e-05 0 -3.31007e-05 8.50764e-09 9.54488e-09
330 3 0.001 -0.0164031 0 -0.0284391 7.97265e-06 0 -3.38928e-05 3.74761e-09 9.46996e-09
481 4 0.001 -0.0115768 0 -0.0278347 -8.13282e-05 0 -3.91469e-05 1.10183e-09 6.72135e-09
480 4 0.001 -0.0113597 0 -0.0284326 -7.57562e-05 0 -3.76411e-05 3.28424e-09 6.71272e-09
631 5 0.001 -0.00581674 0 -0.0276411 1.10312e-05 0 -1.2599e-06 1.43908e-08 3.68278e-09
630 5 0.001 -0.00562624 0 -0.0282484 1.09359e-05 0 -1.85558e-06 1.91627e-08 3.6858e-09
781 6 0.001 -0.000539681 0 -0.0275675 -2.28656e-05 0 -3.76529e-06 2.04853e-08 1.24406e-09
780 6 0.001 -0.000361996 0 -0.0281791 -2.10883e-05 0 -3.73947e-06 2.4929e-08 1.25018e-09
931 7 0.001 0.0043525 0 -0.0275971 -9.16796e-06 0 -2.8456e-07 1.46237e-08 2.70737e-09
930 7 0.001 0.00453276 0 -0.0282076 -7.87861e-06 0 -8.16012e-07 1.88457e-08 2.71547e-09
1081 8 0.001 0.00948116 0 -0.0275729 -3.20063e-06 0 1.2952e-06 1.8877e-08 2.26134e-09
1080 8 0.001 0.00965956 0 -0.0281841 -5.17694e-06 0 3.14923e-07 2.37096e-08 2.26961e-09
1231 9 0.001 0.0142808 0 -0.0276084 9.81638e-06 0 5.92057e-07 1.15728e-08 2.09254e-09
1230 9 0.001 0.0144634 0 -0.0282184 9.24038e-06 0 -2.73024e-07 1.55765e-08 2.09562e-09
1379 10 0.001 0.0202349 0 -0.0287256 -1.42726e-05 0 -4.14819e-06 4.11317e-08 2.26611e-09
1381 10 0.001 0.0199165 0 -0.0274927 -1.85668e-05 0 -5.38808e-06 3.27052e-08 2.2558e-09
1380 10 0.001 0.0200776 0 -0.0281087 -1.64594e-05 0 -5.12495e-06 3.68906e-08 2.26093e-09
33 1 0.001 -0.0236961 0 -0.0260786 -7.92073e-06 0 1.39342e-05 4.95275e-09 2.20465e-08
32 1 0.001 -0.0236438 0 -0.0267113 -4.7296e-06 0 1.30804e-06 3.32908e-09 2.20616e-08
184 2 0.001 -0.0211348 0 -0.0257931 -7.99355e-06 0 6.58092e-05 7.47878e-08 2.18472e-08
183 2 0.001 -0.0209974 0 -0.026413 -3.81449e-05 0 7.05039e-05 5.80128e-08 2.19687e-08
182 2 0.001 -0.0208553 0 -0.0270317 -6.6307e-05 0 7.41421e-05 4.29649e-08 2.21268e-08
332 3 0.001 -0.0168079 0 -0.0272336 1.01116e-05 0 -3.18382e-05 1.54214e-08 9.62506e-09
334 3 0.001 -0.0172033 0 -0.0260251 5.97138e-06 0 -3.17408e-05 3.53148e-08 9.79907e-09
333 3 0.001 -0.0170071 0 -0.0266299 9.23383e-06 0 -3.13934e-05 2.43961e-08 9.70972e-09
482 4 0.001 -0.0117944 0 -0.0272369 -7.79221e-05 0 -3.81685e-05 7.44976e-10 6.73401e-09
484 4 0.001 -0.0122284 0 -0.0260411 -4.6862e-05 0 -2.7263e-05 6.10402e-09 6.77496e-09
483 4 0.001 -0.0120117 0 -0.0266392 -6.56734e-05 0 -3.40042e-05 2.37273e-09 6.75179e-09
634 5 0.001 -0.00640044 0 -0.0258231 2.99401e-06 0 -3.61065e-06 4.12429e-09 3.68027e-09
633 5 0.001 -0.0062042 0 -0.0264286 7.4485e-06 0 -2.55943e-06 6.85224e-09 3.67999e-09
632 5 0.001 -0.00600951 0 -0.0270345 1.00796e-05 0 -1.72341e-06 1.02799e-08 3.68074e-09
783 6 0.001 -0.000903018 0 -0.0263465 -2.41227e-05 0 -4.80236e-06 1.26498e-08 1.23288e-09
782 6 0.001 -0.000720121 0 -0.0269566 -2.37027e-05 0 -4.44806e-06 1.63794e-08 1.2382e-09
784 6 0.001 -0.00108807 0 -0.025737 -2.42301e-05 0 -4.50693e-06 9.33618e-09 1.22791e-09
932 7 0.001 0.00416993 0 -0.0269872 -9.27363e-06 0 -2.84569e-07 1.08809e-08 2.69954e-09
933 7 0.001 0.00398537 0 -0.0263779 -8.749e-06 0 1.39817e-07 7.65239e-09 2.69233e-09
934 7 0.001 0.00379914 0 -0.0257691 -7.69557e-06 0 1.07047e-06 4.97136e-09 2.68552e-09
1083 8 0.001 0.00911678 0 -0.0263527 1.65194e-06 0 2.44561e-06 1.07329e-08 2.24688e-09
1082 8 0.001 0.00930012 0 -0.0269624 -8.17754e-07 0 1.7343e-06 1.45394e-08 2.25368e-09
1233 9 0.001 0.0139098 0 -0.0263901 1.20697e-05 0 1.30222e-06 5.34754e-09 2.08822e-09
1234 9 0.001 0.0137221 0 -0.0257816 1.30707e-05 0 1.70748e-06 3.14658e-09 2.08725e-09
1232 9 0.001 0.0140962 0 -0.026999 1.08858e-05 0 9.36929e-07 8.15888e-09 2.08998e-09
1383 10 0.001 0.019584 0 -0.0262634 -2.14003e-05 0 -6.02317e-06 2.4634e-08 2.24526e-09
1382 10 0.001 0.0197519 0 -0.0268776 -2.01468e-05 0 -5.65352e-06 2.86078e-08 2.25052e-09
34 1 0.001 -0.023747 0 -0.0254458 -1.26321e-05 0 2.64636e-05 6.86108e-09 2.19979e-08
35 1 0.001 -0.0237962 0 -0.0248128 -1.78662e-05 0 3.77785e-05 9.02695e-09 2.19175e-08
186 2 0.001 -0.0213929 0 -0.0245499 5.23887e-05 0 5.17194e-05 1.11557e-07 2.17162e-08
185 2 0.001 -0.0212669 0 -0.0251721 2.27935e-05 0 5.95544e-05 9.28233e-08 2.17631e-08
336 3 0.001 -0.0175846 0 -0.0248121 -1.00933e-05 0 -3.55992e-05 6.24571e-08 9.99099e-09
335 3 0.001 -0.017396 0 -0.0254193 -6.74482e-07 0 -3.31455e-05 4.80465e-08 9.89283e-09
486 4 0.001 -0.0126568 0 -0.0248432 3.03067e-07 0 -1.12266e-05 2.00037e-08 6.83833e-09