ITEM: TIMESTEP
3800000
ITEM: NUMBER OF ATOMS
1500
ITEM: BOX BOUNDS ff ff ff
-2.5000000000000001e-02 2.5000000000000001e-02
-5.0000000000000001e-03 5.0000000000000001e-03
-5.0000000000000003e-02 5.0000000000000003e-02
ITEM: ATOMS id type radius x y z fx fy fz c_bendingE c_stretchingE
1 1 0.001 -0.0225 0 -0.04028 -0.214671 0 -3.8e-09 1.55706e-06 1.59293e-34
2 1 0.001 -0.0225 0 -0.0396424 0.214185 0 -0.016896 3.10449e-06 1.18412e-08
151 2 0.001 -0.0175 0 -0.04028 -0.20902 0 -3.8e-09 1.47607e-06 1.59293e-34
152 2 0.001 -0.0175 0 -0.0396424 0.209192 0 -0.0175364 2.93341e-06 1.26924e-08
301 3 0.001 -0.0125 0 -0.04028 -0.19664 0 -3.8e-09 1.30622e-06 1.59293e-34
302 3 0.001 -0.0125 0 -0.0396424 0.197011 0 -0.0191657 2.59177e-06 1.51511e-08
451 4 0.001 -0.0075 0 -0.04028 -0.166818 0 -3.8e-09 9.39814e-07 1.59293e-34
452 4 0.001 -0.0075 0 -0.0396424 0.166485 0 -0.0226203 1.86995e-06 2.1213e-08
601 5 0.001 -0.0025 0 -0.04028 -0.138334 0 -3.8e-09 6.46126e-07 1.59293e-34
602 5 0.001 -0.0025 0 -0.0396424 0.142509 0 -0.013322 1.24871e-06 7.15143e-09
751 6 0.001 0.0025 0 -0.04028 -0.0928294 0 -3.8e-09 2.90882e-07 1.59293e-34
752 6 0.001 0.0025 0 -0.0396424 0.0970399 0 -0.00916135 5.54429e-07 3.38714e-09
901 7 0.001 0.0075 0 -0.04028 -0.0569285 0 -3.8e-09 1.09382e-07 1.59293e-34
902 7 0.001 0.0075 0 -0.0396424 0.0604895 0 -0.0082355 2.05002e-07 2.77055e-09
1051 8 0.001 0.0125 0 -0.04028 -0.0320096 0 -3.8e-09 3.45797e-08 1.59293e-34
1052 8 0.001 0.0125 0 -0.0396424 0.0352308 0 -0.00815186 6.24027e-08 2.73601e-09
1201 9 0.001 0.0175 0 -0.04028 -0.0110148 0 -3.8e-09 4.09455e-09 1.59293e-34
1202 9 0.001 0.0175 0 -0.0396424 0.013966 0 -0.00765832 6.27756e-09 2.42792e-09
1351 10 0.001 0.0225 0 -0.04028 0.00468901 0 -3.8e-09 7.42016e-10 1.59293e-34
1352 10 0.001 0.0225 0 -0.0396424 -0.00185111 0 -0.00747782 2.64556e-09 2.32373e-09
3 1 0.001 -0.0224567 0 -0.0390091 1.1328e-11 0 -7.13951e-12 4.62589e-06 2.35644e-08
4 1 0.001 -0.0223705 0 -0.0383802 7.63367e-12 0 -3.97355e-12 4.54848e-06 2.32236e-08
5 1 0.001 -0.0222421 0 -0.0377585 3.507e-11 0 -1.95978e-11 4.42427e-06 2.26821e-08
153 2 0.001 -0.0174579 0 -0.0390091 -1.61014e-11 0 5.24007e-12 4.35619e-06 2.52023e-08
154 2 0.001 -0.0173741 0 -0.03838 -5.3199e-12 0 1.04821e-11 4.25341e-06 2.47348e-08
155 2 0.001 -0.0172494 0 -0.0377576 -3.52376e-11 0 2.61418e-11 4.10626e-06 2.40729e-08
303 3 0.001 -0.0124604 0 -0.0390092 -1.80961e-11 0 2.55625e-12 3.8415e-06 3.00906e-08
304 3 0.001 -0.0123816 0 -0.0383797 6.73959e-12 0 -1.60194e-11 3.735e-06 2.95605e-08
305 3 0.001 -0.0122645 0 -0.0377561 -3.44655e-11 0 -4.62885e-12 3.58636e-06 2.88286e-08
453 4 0.001 -0.00746642 0 -0.0390095 7.21854e-12 0 -7.53661e-12 2.77731e-06 4.22817e-08
454 4 0.001 -0.00739953 0 -0.0383792 8.94603e-13 0 -6.45196e-12 2.70968e-06 4.18809e-08
455 4 0.001 -0.00729991 0 -0.0377532 -1.07267e-11 0 -9.56543e-12 2.60522e-06 4.12656e-08
603 5 0.001 -0.00247208 0 -0.0390076 -1.58714e-11 0 2.15252e-12 1.8045e-06 1.4072e-08
604 5 0.001 -0.00241726 0 -0.0383746 -1.41451e-11 0 5.06012e-12 1.66493e-06 1.35999e-08
605 5 0.001 -0.00233668 0 -0.0377442 -4.6389e-11 0 4.2155e-13 1.51813e-06 1.3112e-08
753 6 0.001 0.00251875 0 -0.0390066 -1.71323e-12 0 7.67687e-12 7.90571e-07 6.67804e-09
754 6 0.001 0.00255534 0 -0.0383716 2.54633e-11 0 1.10363e-12 7.08683e-07 6.48729e-09
755 6 0.001 0.00260879 0 -0.0377377 2.08553e-11 0 1.734e-11 6.27558e-07 6.30104e-09
903 7 0.001 0.0075115 0 -0.0390063 -9.83947e-12 0 3.71454e-12 2.87326e-07 5.49794e-09
904 7 0.001 0.00753376 0 -0.0383704 -1.44611e-11 0 3.53695e-12 2.47579e-07 5.41366e-09
905 7 0.001 0.00756598 0 -0.037735 -2.21422e-11 0 1.2859e-11 2.09644e-07 5.33384e-09
1053 8 0.001 0.0125065 0 -0.0390062 -1.09767e-11 0 -1.25208e-12 8.40764e-08 5.45152e-09
1054 8 0.001 0.0125187 0 -0.0383701 -1.45647e-11 0 3.8636e-13 6.5692e-08 5.41262e-09
1055 8 0.001 0.0125361 0 -0.0377341 -3.0613e-11 0 3.24822e-13 4.93131e-08 5.37808e-09
1203 9 0.001 0.0175022 0 -0.0390061 -5.43054e-12 0 -1.70017e-13 7.13862e-09 4.851e-09
1204 9 0.001 0.0175061 0 -0.0383698 -1.25055e-11 0 -5.91974e-12 3.18553e-09 4.8431e-09
1205 9 0.001 0.0175109 0 -0.0377335 -2.19919e-11 0 -8.18505e-12 1.03371e-09 4.8388e-09
1353 10 0.001 0.0224991 0 -0.0390061 -4.6051e-12 0 -2.68403e-12 6.23545e-09 4.65164e-09
1354 10 0.001 0.0224966 0 -0.0383697 3.50531e-12 0 8.84248e-12 1.12785e-08 4.66151e-09
1355 10 0.001 0.022492 0 -0.0377334 -1.55236e-11 0 -1.78882e-11 1.7843e-08 4.67437e-09
6 1 0.001 -0.0220726 0 -0.0371467 3.63776e-11 0 -9.38979e-12 4.25643e-06 2.19605e-08
7 1 0.001 -0.0218636 0 -0.0365472 5.80867e-11 0 -3.38418e-11 4.04914e-06 2.10854e-08
156 2 0.001 -0.0170852 0 -0.0371445 -3.21028e-11 0 2.97367e-11 3.91852e-06 2.32416e-08
157 2 0.001 -0.0168829 0 -0.0365427 -6.42476e-11 0 3.75472e-11 3.69492e-06 2.22706e-08
306 3 0.001 -0.0121103 0 -0.0371407 -1.17668e-11 0 -9.93263e-12 3.39964e-06 2.79221e-08
307 3 0.001 -0.0119205 0 -0.0365352 -4.5028e-11 0 -1.29268e-11 3.17983e-06 2.68735e-08
456 4 0.001 -0.00716846 0 -0.0371331 5.01063e-12 0 -1.43993e-11 2.46717e-06 4.04595e-08
457 4 0.001 -0.00700637 0 -0.0365202 -2.96891e-11 0 -7.50544e-12 2.29972e-06 3.94924e-08
606 5 0.001 -0.00223163 0 -0.0371174 -4.14564e-11 0 1.57573e-11 1.36667e-06 1.2618e-08
607 5 0.001 -0.00210351 0 -0.0364949 -6.73933e-11 0 1.00154e-11 1.21317e-06 1.2127e-08
756 6 0.001 0.00267806 0 -0.0371053 4.19454e-11 0 1.08159e-11 5.48151e-07 6.12136e-09
757 6 0.001 0.00276208 0 -0.0364747 4.78407e-11 0 8.33556e-12 4.7138e-07 5.95012e-09
906 7 0.001 0.00760737 0 -0.0371001 -3.40047e-11 0 8.85552e-12 1.73918e-07 5.2592e-09
907 7 0.001 0.0076571 0 -0.0364658 -5.78159e-11 0 1.5053e-11 1.40767e-07 5.19042e-09
1056 8 0.001 0.0125579 0 -0.0370982 -5.04037e-11 0 -2.28671e-12 3.5108e-08 5.34821e-09
1057 8 0.001 0.0125835 0 -0.0364625 -3.83095e-11 0 -5.52553e-12 2.32221e-08 5.32329e-09
1206 9 0.001 0.0175162 0 -0.0370972 -3.87139e-11 0 -1.23791e-11 7.03983e-10 4.83814e-09
1207 9 0.001 0.0175213 0 -0.0364609 -5.44633e-11 0 -1.65368e-11 2.19955e-09 4.84112e-09
1356 10 0.001 0.0224848 0 -0.0370971 -1.39509e-11 0 -1.76958e-13 2.58667e-08 4.69012e-09
1357 10 0.001 0.0224744 0 -0.0364609 -2.03033e-11 0 -2.1769e-12 3.52728e-08 4.70862e-09
8 1 0.001 -0.0216169 0 -0.0359621 5.09641e-11 0 -2.80093e-11 3.80744e-06 2.00876e-08
9 1 0.001 -0.0213346 0 -0.0353933 7.74974e-11 0 -3.55857e-11 3.53709e-06 1.90002e-08
10 1 0.001 -0.0210189 0 -0.0348422 6.17875e-11 0 -4.50146e-11 3.24429e-06 1.78567e-08
158 2 0.001 -0.0166444 0 -0.0359543 -5.63573e-11 0 4.81625e-11 3.44097e-06 2.1193e-08
159 2 0.001 -0.0163718 0 -0.0353808 -6.81687e-11 0 5.16018e-11 3.16275e-06 2.00432e-08
160 2 0.001 -0.0160674 0 -0.0348235 -7.11729e-11 0 6.19013e-11 2.8667e-06 1.88549e-08
308 3 0.001 -0.0116968 0 -0.0359412 -1.66833e-11 0 -1.45754e-11 2.93266e-06 2.57186e-08
309 3 0.001 -0.0114413 0 -0.0353602 -3.58342e-11 0 -1.69967e-11 2.66444e-06 2.4494e-08
310 3 0.001 -0.0111562 0 -0.0347931 -1.53963e-11 0 -2.82024e-11 2.38179e-06 2.32359e-08
458 4 0.001 -0.00681507 0 -0.0359158 -2.41455e-11 0 -1.30741e-11 2.10789e-06 3.83988e-08
459 4 0.001 -0.00659623 0 -0.0353207 -6.04207e-11 0 7.9833e-13 1.89732e-06 3.72163e-08
460 4 0.001 -0.00635167 0 -0.0347356 -7.58909e-11 0 2.56595e-12 1.67411e-06 3.59829e-08
608 5 0.001 -0.00195383 0 -0.0358772 -6.27892e-11 0 1.47392e-11 1.06018e-06 1.16474e-08
609 5 0.001 -0.00178415 0 -0.0352646 -7.03876e-11 0 1.45303e-11 9.10208e-07 1.11866e-08
758 6 0.001 0.00285974 0 -0.0358461 6.84503e-11 0 1.46666e-11 3.98113e-07 5.78897e-09
759 6 0.001 0.00296987 0 -0.0352195 7.18924e-11 0 1.58366e-11 3.29165e-07 5.63933e-09
908 7 0.001 0.0077143 0 -0.0358321 -4.46263e-11 0 1.68474e-11 1.10531e-07 5.12808e-09
909 7 0.001 0.00777812 0 -0.035199 -7.17454e-11 0 2.2442e-11 8.3517e-08 5.07269e-09
1058 8 0.001 0.012612 0 -0.0358269 -5.94748e-11 0 5.55721e-12 1.37765e-08 5.30352e-09
1059 8 0.001 0.0126428 0 -0.0351913 -5.24273e-11 0 -9.80377e-12 6.86718e-09 5.28908e-09
1208 9 0.001 0.0175256 0 -0.0358246 -4.70574e-11 0 -1.61223e-11 5.50592e-09 4.84772e-09
1209 9 0.001 0.0175285 0 -0.0351883 -1.01141e-10 0 -2.11236e-11 1.05911e-08 4.85788e-09
1358 10 0.001 0.0224603 0 -0.0358247 -3.7003e-11 0 -1.11626e-11 4.59713e-08 4.72971e-09
1359 10 0.001 0.0224419 0 -0.0351886 -3.87289e-11 0 -2.2111e-12 5.78597e-08 4.75319e-09
11 1 0.001 -0.0206724 0 -0.0343098 6.43146e-11 0 -3.37646e-11 2.93553e-06 1.66894e-08
12 1 0.001 -0.0202975 0 -0.0337969 6.49086e-11 0 -4.72988e-11 2.6174e-06 1.5528e-08
13 1 0.001 -0.0198969 0 -0.0333038 4.9131e-11 0 -3.56466e-11 2.29636e-06 1.43985e-08
161 2 0.001 -0.0157336 0 -0.0342832 -7.84894e-11 0 6.11195e-11 2.55943e-06 1.76601e-08
162 2 0.001 -0.0153729 0 -0.0337603 -7.73348e-11 0 6.80753e-11 2.24752e-06 1.64872e-08
163 2 0.001 -0.0149878 0 -0.0332551 -6.68476e-11 0 6.92041e-11 1.93737e-06 1.53611e-08
311 3 0.001 -0.0108437 0 -0.0342405 -6.53654e-12 0 -3.77346e-11 2.09147e-06 2.19782e-08
312 3 0.001 -0.0105063 0 -0.0337026 2.84339e-12 0 -4.83268e-11 1.80018e-06 2.07516e-08
461 4 0.001 -0.0060834 0 -0.034161 -9.49589e-11 0 -2.57365e-12 1.44456e-06 3.47362e-08
462 4 0.001 -0.00579349 0 -0.033597 -1.31133e-10 0 2.36805e-11 1.215e-06 3.35115e-08
610 5 0.001 -0.00159612 0 -0.0346574 -5.65895e-11 0 2.47837e-11 7.65617e-07 1.07511e-08
611 5 0.001 -0.0013914 0 -0.0340556 -7.61486e-11 0 1.5872e-11 6.28637e-07 1.03466e-08
612 5 0.001 -0.00117171 0 -0.033459 -5.63773e-11 0 1.67983e-11 5.01323e-07 9.97755e-09
760 6 0.001 0.0030913 0 -0.0345949 7.81225e-11 0 1.08916e-11 2.65285e-07 5.50244e-09
761 6 0.001 0.00322284 0 -0.0339724 7.37654e-11 0 1.77477e-11 2.07157e-07 5.37934e-09
762 6 0.001 0.00336327 0 -0.0333519 6.76142e-11 0 1.20819e-11 1.55391e-07 5.27088e-09
910 7 0.001 0.00784768 0 -0.0345665 -6.38881e-11 0 2.07505e-11 5.99947e-08 5.02472e-09
911 7 0.001 0.00792207 0 -0.0339346 -7.85805e-11 0 2.96226e-11 4.01991e-08 4.98451e-09
912 7 0.001 0.00800039 0 -0.0333031 -7.30245e-11 0 2.2278e-11 2.43261e-08 4.9524e-09
1060 8 0.001 0.0126752 0 -0.0345559 -3.56432e-11 0 -4.38674e-12 2.56422e-09 5.2801e-09
1061 8 0.001 0.0127084 0 -0.0339205 -4.04736e-11 0 -6.72199e-12 9.11158e-10 5.27664e-09
1062 8 0.001 0.0127417 0 -0.0332851 -1.13906e-11 0 -8.58888e-12 1.9247e-09 5.27875e-09
1210 9 0.001 0.0175294 0 -0.034552 -7.78574e-11 0 -2.23228e-11 1.74057e-08 4.87151e-09
1212 9 0.001 0.0175227 0 -0.0332794 -1.28783e-10 0 -3.14142e-11 3.5942e-08 4.9087e-09
1211 9 0.001 0.0175276 0 -0.0339157 -1.27443e-10 0 -2.71051e-11 2.58835e-08 4.8885e-09
1360 10 0.001 0.0224186 0 -0.0345527 -6.95474e-11 0 -1.59213e-11 7.08234e-08 4.77887e-09
1361 10 0.001 0.0223901 0 -0.0339171 -5.19911e-11 0 -5.73095e-12 8.47371e-08 4.80651e-09
1362 10 0.001 0.0223557 0 -0.0332817 -8.95819e-11 0 -1.63888e-11 9.94657e-08 4.83585e-09
14 1 0.001 -0.0194731 0 -0.0328303 5.84446e-11 0 -4.53676e-11 1.97866e-06 1.33227e-08
15 1 0.001 -0.0190287 0 -0.0323761 4.37119e-11 0 -2.32902e-11 1.67017e-06 1.23182e-08
16 1 0.001 -0.018566 0 -0.0319402 5.93159e-11 0 -5.69007e-11 1.37632e-06 1.13979e-08
164 2 0.001 -0.0145808 0 -0.0327671 -8.71024e-11 0 7.46889e-11 1.63508e-06 1.43018e-08
165 2 0.001 -0.0141545 0 -0.0322959 -7.83393e-11 0 6.92906e-11 1.3463e-06 1.33251e-08
166 2 0.001 -0.0137112 0 -0.0318405 -7.14515e-11 0 7.22086e-11 1.07618e-06 1.24429e-08
313 3 0.001 -0.0101464 0 -0.0331795 2.27619e-11 0 -5.57111e-11 1.51439e-06 1.95824e-08
314 3 0.001 -0.00976645 0 -0.0326706 3.97573e-11 0 -8.53327e-11 1.24022e-06 1.84926e-08
315 3 0.001 -0.00936883 0 -0.0321754 5.15408e-11 0 -9.68817e-11 9.83288e-07 1.74996e-08
316 3 0.001 -0.00895592 0 -0.0316927 6.50356e-11 0 -1.03168e-10 7.48692e-07 1.6617e-08
463 4 0.001 -0.00548412 0 -0.0330432 -1.47152e-10 0 2.58629e-11 9.91607e-07 3.23408e-08
464 4 0.001 -0.00515751 0 -0.0324994 -1.78898e-10 0 2.99005e-11 7.80252e-07 3.12524e-08
465 4 0.001 -0.0048159 0 -0.0319649 -1.89447e-10 0 4.1182e-11 5.86351e-07 3.02703e-08
613 5 0.001 -0.000938782 0 -0.0328674 -8.16645e-11 0 3.26647e-11 3.85532e-07 9.64774e-09
614 5 0.001 -0.000694362 0 -0.0322804 -8.36553e-11 0 2.53201e-11 2.82914e-07 9.36008e-09
615 5 0.001 -0.000440199 0 -0.0316976 -1.10594e-10 0 3.91329e-11 1.94896e-07 9.11681e-09
763 6 0.001 0.00351135 0 -0.0327331 5.61452e-11 0 2.36194e-11 1.10523e-07 5.17777e-09
764 6 0.001 0.00366584 0 -0.0321158 5.39788e-11 0 2.48826e-11 7.30114e-08 5.10056e-09
913 7 0.001 0.00808173 0 -0.0326721 -7.72685e-11 0 2.53903e-11 1.25319e-08 4.9286e-09
914 7 0.001 0.00816518 0 -0.0320412 -8.3296e-11 0 3.10374e-11 4.93218e-09 4.91329e-09
1063 8 0.001 0.0127743 0 -0.0326497 -5.01107e-12 0 -1.15047e-11 5.59461e-09 5.2864e-09
1064 8 0.001 0.0128055 0 -0.0320142 1.35288e-11 0 -8.68901e-12 1.18838e-08 5.29953e-09
1214 9 0.001 0.0175009 0 -0.032007 -1.7932e-10 0 -3.16398e-11 6.0393e-08 4.95798e-09
1213 9 0.001 0.017514 0 -0.0326431 -1.56989e-10 0 -3.64689e-11 4.74828e-08 4.93193e-09
1363 10 0.001 0.0223149 0 -0.0326467 -9.36035e-11 0 -1.30279e-11 1.14866e-07 4.86663e-09
1364 10 0.001 0.0222674 0 -0.0320121 -7.97102e-11 0 -1.28314e-11 1.30786e-07 4.89854e-09
17 1 0.001 -0.0180876 0 -0.0315217 2.95911e-11 0 -2.17906e-11 1.10201e-06 1.0571e-08
18 1 0.001 -0.0175955 0 -0.0311191 6.52644e-11 0 -5.77086e-11 8.51593e-07 9.84339e-09
19 1 0.001 -0.017092 0 -0.030731 3.40503e-11 0 -3.0556e-11 6.28844e-07 9.21792e-09
20 1 0.001 -0.0165789 0 -0.0303554 5.58537e-11 0 -5.38059e-11 4.36969e-07 8.69558e-09
167 2 0.001 -0.0132532 0 -0.0313998 -9.03314e-11 0 6.22974e-11 8.29332e-07 1.16631e-08
168 2 0.001 -0.0127828 0 -0.0309723 -8.17202e-11 0 7.84387e-11 6.09763e-07 1.09906e-08
169 2 0.001 -0.012302 0 -0.0305564 -6.69193e-11 0 4.43583e-11 4.20898e-07 1.04282e-08
317 3 0.001 -0.00853002 0 -0.0312213 7.65124e-11 0 -1.21478e-10 5.40899e-07 1.58542e-08
318 3 0.001 -0.00809337 0 -0.0307598 8.97558e-11 0 -1.39366e-10 3.63735e-07 1.5218e-08
319 3 0.001 -0.00764811 0 -0.0303066 7.73209e-11 0 -1.40469e-10 2.20362e-07 1.47127e-08
466 4 0.001 -0.00446152 0 -0.0314387 -2.16754e-10 0 4.71538e-11 4.14759e-07 2.94143e-08
467 4 0.001 -0.00409661 0 -0.0309196 -2.15771e-10 0 3.65364e-11 2.69682e-07 2.87001e-08
468 4 0.001 -0.00372337 0 -0.0304065 -2.3255e-10 0 4.65835e-11 1.54608e-07 2.81399e-08
616 5 0.001 -0.000178041 0 -0.0311183 -1.34647e-10 0 4.86887e-11 1.2268e-07 8.91961e-09
617 5 0.001 9.03647e-05 0 -0.0305419 -1.55347e-10 0 7.01236e-11 6.72323e-08 8.76966e-09
765 6 0.001 0.0038255 0 -0.0314999 3.15007e-11 0 2.46451e-11 4.32336e-08 5.03968e-09
766 6 0.001 0.00398908 0 -0.030885 1.76727e-11 0 2.88222e-11 2.14872e-08 4.99545e-09
767 6 0.001 0.00415531 0 -0.0302708 3.04384e-14 0 3.92279e-11 7.98769e-09 4.96809e-09
915 7 0.001 0.0082498 0 -0.0314106 -8.52804e-11 0 2.77503e-11 1.60127e-09 4.90658e-09
916 7 0.001 0.00833467 0 -0.03078 -8.53879e-11 0 2.50141e-11 2.57166e-09 4.90853e-09
1065 8 0.001 0.0128347 0 -0.0313786 3.39975e-11 0 -1.52664e-11 2.07284e-08 5.31803e-09
1066 8 0.001 0.012861 0 -0.0307429 3.97549e-11 0 -9.42801e-12 3.20387e-08 5.34172e-09
1216 9 0.001 0.0174595 0 -0.0307351 -2.20059e-10 0 -4.25516e-11 8.98004e-08 5.01758e-09
1215 9 0.001 0.0174829 0 -0.0313709 -1.82613e-10 0 -4.45983e-11 7.45454e-08 4.98662e-09
1365 10 0.001 0.0222127 0 -0.0313782 -1.19695e-10 0 -2.07139e-11 1.4707e-07 4.9313e-09
1366 10 0.001 0.0221503 0 -0.0307449 -8.86774e-11 0 -1.98619e-11 1.63557e-07 4.96458e-09
21 1 0.001 -0.0160581 0 -0.0299904 3.93042e-11 0 -3.67626e-11 2.78611e-07 8.27595e-09
22 1 0.001 -0.0155314 0 -0.029634 4.56205e-11 0 -4.56839e-11 1.5587e-07 7.95782e-09
23 1 0.001 -0.0150005 0 -0.0292839 3.51395e-11 0 -4.23659e-11 7.03239e-08 7.73977e-09
24 1 0.001 -0.014467 0 -0.0289377 3.12191e-11 0 -2.99962e-11 2.30442e-08 7.62056e-09
170 2 0.001 -0.0118129 0 -0.0301503 -8.54274e-11 0 6.50849e-11 2.65568e-07 9.97666e-09
171 2 0.001 -0.0113174 0 -0.029752 -5.99846e-11 0 2.4517e-11 1.4602e-07 9.63595e-09
172 2 0.001 -0.0108173 0 -0.0293594 -5.72044e-11 0 2.21612e-11 6.39385e-08 9.40543e-09
173 2 0.001 -0.0103144 0 -0.0289703 -4.33435e-11 0 3.02026e-12 2.04529e-08 9.28444e-09
320 3 0.001 -0.00719635 0 -0.0298598 1.03208e-10 0 -1.48726e-10 1.13271e-07 1.43408e-08
321 3 0.001 -0.00674013 0 -0.0294175 7.17869e-11 0 -1.38897e-10 4.42838e-08 1.41038e-08
322 3 0.001 -0.00628144 0 -0.0289778 9.4156e-11 0 -1.50318e-10 1.45563e-08 1.40022e-08
469 4 0.001 -0.00334402 0 -0.0298978 -2.32407e-10 0 3.63981e-11 7.22596e-08 2.77423e-08
470 4 0.001 -0.00296071 0 -0.0293921 -2.38475e-10 0 4.02207e-11 2.45628e-08 2.75134e-08
471 4 0.001 -0.00257561 0 -0.0288878 -2.55182e-10 0 4.71129e-11 1.26231e-08 2.74562e-08
618 5 0.001 0.000363275 0 -0.0299675 -2.13437e-10 0 8.46605e-11 2.92866e-08 8.66777e-09
619 5 0.001 0.00063895 0 -0.0293945 -2.24891e-10 0 1.01934e-10 9.33859e-09 8.61444e-09
620 5 0.001 0.000915653 0 -0.028822 -2.79945e-10 0 1.28242e-10 7.64755e-09 8.60993e-09
768 6 0.001 0.00432293 0 -0.029657 -2.36871e-11 0 4.33605e-11 2.86809e-09 4.95773e-09
769 6 0.001 0.0044907 0 -0.0290432 -4.92215e-11 0 4.02363e-11 6.17871e-09 4.96442e-09
917 7 0.001 0.00841888 0 -0.0301493 -1.00504e-10 0 3.46994e-11 7.83389e-09 4.91911e-09
918 7 0.001 0.00850149 0 -0.0295183 -1.00351e-10 0 2.34515e-11 1.73366e-08 4.93826e-09
919 7 0.001 0.00858158 0 -0.0288871 -9.87e-11 0 2.92452e-11 3.09867e-08 4.96582e-09
1067 8 0.001 0.0128838 0 -0.0301071 7.13664e-11 0 -2.03183e-11 4.56996e-08 5.37042e-09
1068 8 0.001 0.0129023 0 -0.0294711 5.87867e-11 0 -1.6864e-11 6.15713e-08 5.40385e-09
1069 8 0.001 0.0129159 0 -0.028835 9.03271e-11 0 -1.77044e-11 7.94909e-08 5.44173e-09
1217 9 0.001 0.01743 0 -0.0300995 -2.20691e-10 0 -4.68631e-11 1.06007e-07 5.05057e-09
1218 9 0.001 0.0173941 0 -0.0294642 -2.50686e-10 0 -4.12852e-11 1.23002e-07 5.08529e-09
1219 9 0.001 0.0173511 0 -0.0288294 -2.64163e-10 0 -6.2275e-11 1.40618e-07 5.1214e-09
1368 10 0.001 0.0220009 0 -0.0294812 -8.9034e-11 0 -1.82502e-11 1.96483e-07 5.03136e-09
1369 10 0.001 0.0219131 0 -0.028851 -8.87276e-11 0 -2.80894e-11 2.12592e-07 5.0642e-09
1367 10 0.001 0.0220798 0 -0.0301126 -1.0265e-10 0 -2.5134e-11 1.80083e-07 4.99804e-09
25 1 0.001 -0.0139323 0 -0.0285933 3.07518e-11 0 -2.11958e-11 1.46148e-08 7.5994e-09
26 1 0.001 -0.0133981 0 -0.0282482 1.21816e-11 0 -1.51847e-11 4.5139e-08 7.67615e-09
27 1 0.001 -0.0128658 0 -0.0279001 4.66861e-12 0 -8.90287e-12 1.14242e-07 7.85132e-09
28 1 0.001 -0.0123371 0 -0.0275467 -8.91672e-13 0 2.0543e-11 2.21063e-07 8.12599e-09
174 2 0.001 -0.00981041 0 -0.0285826 -4.20671e-11 0 -1.96194e-11 1.61545e-08 9.27251e-09
175 2 0.001 -0.00930712 0 -0.0281941 -2.13849e-11 0 -4.23964e-11 5.11014e-08 9.36962e-09
176 2 0.001 -0.00880625 0 -0.0278024 -1.9054e-11 0 -5.06566e-11 1.24819e-07 9.57612e-09
177 2 0.001 -0.00830956 0 -0.0274055 1.82956e-12 0 -7.74032e-11 2.36297e-07 9.89266e-09
323 3 0.001 -0.00582226 0 -0.0285385 5.4538e-11 0 -1.16329e-10 2.45818e-08 1.40364e-08
324 3 0.001 -0.00536457 0 -0.0280978 5.42575e-11 0 -1.30639e-10 7.41941e-08 1.42063e-08
325 3 0.001 -0.00491034 0 -0.0276535 3.11138e-11 0 -9.31022e-11 1.62567e-07 1.45114e-08
326 3 0.001 -0.0044616 0 -0.0272036 8.54735e-12 0 -9.59615e-11 2.88209e-07 1.49507e-08
472 4 0.001 -0.00219087 0 -0.0283831 -2.65001e-10 0 4.47243e-11 3.67164e-08 2.75716e-08
473 4 0.001 -0.00180865 0 -0.0278766 -2.80302e-10 0 5.59745e-11 9.62857e-08 2.7858e-08
474 4 0.001 -0.00143112 0 -0.0273666 -3.11684e-10 0 6.93835e-11 1.89947e-07 2.83113e-08
621 5 0.001 0.00119165 0 -0.0282491 -2.93904e-10 0 1.23396e-10 2.42354e-08 8.65423e-09
622 5 0.001 0.0014652 0 -0.0276751 -3.29173e-10 0 1.53287e-10 5.88867e-08 8.74717e-09
770 6 0.001 0.00465733 0 -0.0284291 -7.83788e-11 0 5.45109e-11 1.7887e-08 4.98813e-09
771 6 0.001 0.00482158 0 -0.0278144 -9.63504e-11 0 5.21527e-11 3.78778e-08 5.02874e-09
772 6 0.001 0.00498219 0 -0.0271987 -1.26419e-10 0 6.58314e-11 6.59532e-08 5.08606e-09
920 7 0.001 0.00865825 0 -0.0282554 -1.09124e-10 0 2.43664e-11 4.86502e-08 5.00161e-09
921 7 0.001 0.00873057 0 -0.0276233 -1.05175e-10 0 2.75845e-11 7.01527e-08 5.04535e-09
1070 8 0.001 0.0129238 0 -0.0281988 8.46858e-11 0 -2.0498e-11 9.92737e-08 5.48369e-09
1071 8 0.001 0.0129254 0 -0.0275626 9.55597e-11 0 -1.932e-11 1.20714e-07 5.52936e-09
1220 9 0.001 0.0173006 0 -0.0281951 -2.84401e-10 0 -5.57128e-11 1.58675e-07 5.15855e-09
1221 9 0.001 0.0172421 0 -0.0275615 -3.1007e-10 0 -6.30337e-11 1.76992e-07 5.19637e-09
1370 10 0.001 0.0218161 0 -0.0282221 -5.70735e-11 0 -2.31549e-11 2.28248e-07 5.09622e-09
1371 10 0.001 0.0217097 0 -0.0275948 -6.47312e-11 0 -2.83662e-11 2.43292e-07 5.12708e-09
29 1 0.001 -0.0118136 0 -0.0271857 -1.02179e-11 0 1.42613e-11 3.64246e-07 8.50155e-09
30 1 0.001 -0.011297 0 -0.0268149 -2.38616e-11 0 4.33427e-11 5.41921e-07 8.97936e-09
31 1 0.001 -0.0107891 0 -0.0264324 -2.73667e-11 0 3.40413e-11 7.5168e-07 9.56025e-09
32 1 0.001 -0.0102918 0 -0.0260363 -3.89001e-11 0 5.88067e-11 9.90563e-07 1.02439e-08
178 2 0.001 -0.00781889 0 -0.0270013 -9.49967e-12 0 -7.64889e-11 3.83973e-07 1.03199e-08
179 2 0.001 -0.00733612 0 -0.0265877 1.45088e-11 0 -1.01338e-10 5.65725e-07 1.08581e-08
180 2 0.001 -0.00686326 0 -0.0261629 3.18495e-12 0 -9.1533e-11 7.7885e-07 1.15067e-08
181 2 0.001 -0.00640238 0 -0.0257252 3.43882e-11 0 -1.19764e-10 1.02006e-06 1.22633e-08
327 3 0.001 -0.00402041 0 -0.0267465 1.61802e-12 0 -7.41189e-11 4.48961e-07 1.55224e-08
328 3 0.001 -0.00358891 0 -0.0262802 -2.48185e-11 0 -7.88185e-11 6.41996e-07 1.6223e-08
329 3 0.001 -0.00316927 0 -0.0258033 -3.79737e-11 0 -4.74165e-11 8.63813e-07 1.70472e-08
475 4 0.001 -0.00106045 0 -0.0268516 -3.21458e-10 0 6.87226e-11 3.15501e-07 2.89246e-08
476 4 0.001 -0.00069885 0 -0.0263303 -3.63379e-10 0 9.18985e-11 4.69964e-07 2.96882e-08
477 4 0.001 -0.000348534 0 -0.0258014 -3.63238e-10 0 9.48053e-11 6.49598e-07 3.05888e-08
623 5 0.001 0.00173457 0 -0.0270991 -3.27551e-10 0 1.47268e-10 1.11149e-07 8.88828e-09
624 5 0.001 0.00199801 0 -0.0265203 -3.56563e-10 0 1.65589e-10 1.80334e-07 9.07682e-09
625 5 0.001 0.00225378 0 -0.0259382 -3.41979e-10 0 1.45622e-10 2.65516e-07 9.31167e-09
773 6 0.001 0.0051379 0 -0.0265818 -1.54316e-10 0 6.21672e-11 1.01833e-07 5.15978e-09
774 6 0.001 0.00528746 0 -0.0259633 -1.67427e-10 0 6.15669e-11 1.45158e-07 5.24951e-09
922 7 0.001 0.00879765 0 -0.0269905 -1.22395e-10 0 1.92955e-11 9.52809e-08 5.09671e-09
923 7 0.001 0.00885859 0 -0.0263572 -1.08765e-10 0 2.31793e-11 1.23784e-07 5.15528e-09
924 7 0.001 0.00891253 0 -0.0257232 -1.23684e-10 0 2.13412e-11 1.55373e-07 5.22058e-09
1072 8 0.001 0.01292 0 -0.0269264 1.03994e-10 0 -1.90464e-11 1.43589e-07 5.57829e-09
1073 8 0.001 0.0129071 0 -0.0262903 9.15707e-11 0 -2.18637e-11 1.67658e-07 5.63e-09
1074 8 0.001 0.0128859 0 -0.0256544 9.72302e-11 0 -2.36862e-11 1.92667e-07 5.68399e-09
1222 9 0.001 0.0171752 0 -0.0269288 -3.34443e-10 0 -6.56317e-11 1.95382e-07 5.23448e-09
1223 9 0.001 0.0170995 0 -0.026297 -3.50003e-10 0 -7.36755e-11 2.13657e-07 5.27249e-09
1224 9 0.001 0.0170146 0 -0.0256665 -3.83129e-10 0 -7.52195e-11 2.31628e-07 5.31e-09
1372 10 0.001 0.0215936 0 -0.0269692 -2.36602e-11 0 -2.1727e-11 2.57572e-07 5.15646e-09
1373 10 0.001 0.0214674 0 -0.0263456 -2.65195e-11 0 -2.55605e-11 2.70941e-07 5.18405e-09
1374 10 0.001 0.021331 0 -0.0257241 1.14919e-11 0 -2.3326e-11 2.83262e-07 5.20953e-09
33 1 0.001 -0.00980717 0 -0.0256249 -4.64911e-11 0 6.58964e-11 1.25504e-06 1.10284e-08
34 1 0.001 -0.00933742 0 -0.0251967 -5.12687e-11 0 6.12799e-11 1.54101e-06 1.19092e-08
35 1 0.001 -0.00888482 0 -0.0247505 -4.60483e-11 0 6.75198e-11 1.84381e-06 1.28786e-08
36 1 0.001 -0.0084518 0 -0.0242854 -7.24881e-11 0 8.08813e-11 2.15822e-06 1.39255e-08
182 2 0.001 -0.00595567 0 -0.0252731 1.44011e-11 0 -1.07771e-10 1.28546e-06 1.31237e-08
183 2 0.001 -0.00552543 0 -0.0248055 3.85402e-11 0 -1.21572e-10 1.57058e-06 1.40805e-08
184 2 0.001 -0.00511404 0 -0.0243212 2.68998e-11 0 -1.19747e-10 1.87038e-06 1.51229e-08
330 3 0.001 -0.00276377 0 -0.0253144 -4.50747e-11 0 -7.06891e-11 1.11026e-06 1.79868e-08
331 3 0.001 -0.00237475 0 -0.0248124 -6.92118e-11 0 -3.88607e-11 1.37655e-06 1.90304e-08
332 3 0.001 -0.00200459 0 -0.0242964 -7.85088e-11 0 -4.82976e-11 1.65731e-06 2.01627e-08
478 4 0.001 -1.17381e-05 0 -0.0252638 -4.08079e-10 0 1.10704e-10 8.49969e-07 3.16092e-08
479 4 0.001 0.000309295 0 -0.0247167 -4.21833e-10 0 1.15322e-10 1.06602e-06 3.27283e-08
626 5 0.001 0.00250014 0 -0.0253521 -3.43127e-10 0 1.51744e-10 3.65538e-07 9.59127e-09
627 5 0.001 0.00273532 0 -0.0247614 -3.33438e-10 0 1.51167e-10 4.79014e-07 9.91348e-09
628 5 0.001 0.00295758 0 -0.0241657 -3.04566e-10 0 1.2965e-10 6.04333e-07 1.02755e-08
775 6 0.001 0.00542964 0 -0.0253431 -2.02721e-10 0 6.85154e-11 1.95485e-07 5.35472e-09
776 6 0.001 0.00556318 0 -0.0247211 -2.08515e-10 0 7.1066e-11 2.52296e-07 5.47473e-09
925 7 0.001 0.0089586 0 -0.0250886 -1.25255e-10 0 1.54338e-11 1.8973e-07 5.29207e-09
926 7 0.001 0.00899596 0 -0.0244534 -1.18905e-10 0 2.26636e-11 2.26499e-07 5.36913e-09
1075 8 0.001 0.012856 0 -0.0250189 9.95726e-11 0 -2.03316e-11 2.1835e-07 5.73971e-09
1076 8 0.001 0.0128166 0 -0.0243839 9.53715e-11 0 -2.58404e-11 2.44431e-07 5.79656e-09
1225 9 0.001 0.0169201 0 -0.0250373 -4.05354e-10 0 -9.1989e-11 2.49112e-07 5.34662e-09
1226 9 0.001 0.0168157 0 -0.0244096 -4.42709e-10 0 -8.77668e-11 2.65925e-07 5.38196e-09
1375 10 0.001 0.0211841 0 -0.025105 1.11145e-11 0 -1.53027e-11 2.94409e-07 5.23264e-09
1376 10 0.001 0.0210267 0 -0.0244885 3.45276e-11 0 -2.8689e-11 3.04266e-07 5.25312e-09
37 1 0.001 -0.00804085 0 -0.0238008 -4.5565e-11 0 6.33623e-11 2.47856e-06 1.50341e-08
38 1 0.001 -0.00765452 0 -0.0232964 -5.98538e-11 0 7.34365e-11 2.79874e-06 1.61847e-08
39 1 0.001 -0.00729542 0 -0.0227724 -4.89461e-11 0 6.31604e-11 3.11235e-06 1.73529e-08
185 2 0.001 -0.00472397 0 -0.0238198 3.2935e-11 0 -1.18825e-10 2.17932e-06 1.6236e-08
186 2 0.001 -0.00435771 0 -0.0233008 3.58696e-11 0 -1.2258e-10 2.49138e-06 1.74006e-08
187 2 0.001 -0.00401781 0 -0.0227643 2.57048e-11 0 -1.13417e-10 2.80022e-06 1.85929e-08
333 3 0.001 -0.00165572 0 -0.0237659 -9.55603e-11 0 -3.98436e-11 1.94666e-06 2.13639e-08
334 3 0.001 -0.00133058 0 -0.0232206 -9.7799e-11 0 -4.69177e-11 2.23829e-06 2.26097e-08
480 4 0.001 0.000612333 0 -0.0241595 -4.37826e-10 0 1.24166e-10 1.29217e-06 3.39206e-08
481 4 0.001 0.000895172 0 -0.0235919 -4.68964e-10 0 1.33469e-10 1.52244e-06 3.51565e-08
482 4 0.001 0.00115566 0 -0.0230137 -4.62479e-10 0 1.19918e-10 1.75056e-06 3.64027e-08
629 5 0.001 0.00316519 0 -0.0235649 -3.012e-10 0 1.30362e-10 7.39677e-07 1.06738e-08
630 5 0.001 0.00335644 0 -0.0229586 -2.67061e-10 0 1.09372e-10 8.83025e-07 1.11039e-08
777 6 0.001 0.00568689 0 -0.024097 -2.27043e-10 0 6.59852e-11 3.14996e-07 5.60873e-09
778 6 0.001 0.00579955 0 -0.0234708 -2.52279e-10 0 7.39376e-11 3.82917e-07 5.75571e-09
779 6 0.001 0.00589998 0 -0.0228426 -2.53857e-10 0 7.45093e-11 4.55323e-07 5.9145e-09
927 7 0.001 0.00902379 0 -0.0238178 -1.20308e-10 0 1.09454e-11 2.65302e-07 5.45104e-09
928 7 0.001 0.00904129 0 -0.0231818 -1.31152e-10 0 1.57779e-11 3.0573e-07 5.53705e-09
1077 8 0.001 0.0127674 0 -0.0237497 9.60506e-11 0 -2.16045e-11 2.70629e-07 5.85396e-09
1078 8 0.001 0.0127078 0 -0.0231163 1.08394e-10 0 -2.7e-11 2.9666e-07 5.91126e-09
1227 9 0.001 0.0167011 0 -0.0237838 -4.62011e-10 0 -9.62975e-11 2.81892e-07 5.41563e-09
1228 9 0.001 0.0165761 0 -0.02316 -5.08736e-10 0 -1.11159e-10 2.96846e-07 5.44725e-09
1379 10 0.001 0.0204897 0 -0.022657 6.69699e-11 0 -2.09649e-11 3.25148e-07 5.29663e-09
1377 10 0.001 0.0208585 0 -0.0238749 4.90828e-11 0 -1.97401e-11 3.12731e-07 5.27073e-09
1378 10 0.001 0.0206796 0 -0.0232643 4.89306e-11 0 -1.80905e-11 3.19716e-07 5.28529e-09
40 1 0.001 -0.0069661 0 -0.0222293 -5.12958e-11 0 7.17982e-11 3.41286e-06 1.85105e-08
41 1 0.001 -0.00666907 0 -0.021668 -3.44467e-11 0 5.19193e-11 3.6937e-06 1.96262e-08
188 2 0.001 -0.00370677 0 -0.0222106 2.40175e-11 0 -1.12048e-10 3.0993e-06 1.97852e-08
189 2 0.001 -0.00342702 0 -0.0216405 1.03002e-11 0 -1.0791e-10 3.38198e-06 2.09463e-08
335 3 0.001 -0.00103159 0 -0.0226606 -1.21281e-10 0 -3.29958e-11 2.52559e-06 2.38716e-08
336 3 0.001 -0.000761104 0 -0.0220864 -1.31665e-10 0 -4.35799e-11 2.80181e-06 2.51172e-08
337 3 0.001 -0.000521386 0 -0.0214987 -1.19767e-10 0 -4.07973e-11 3.06024e-06 2.63113e-08
483 4 0.001 0.00139175 0 -0.0224252 -4.7887e-10 0 1.36558e-10 1.97019e-06 3.76231e-08
484 4 0.001 0.00160148 0 -0.0218269 -4.57619e-10 0 1.15652e-10 2.1751e-06 3.87798e-08
485 4 0.001 0.00178309 0 -0.0212195 -4.28374e-10 0 1.15503e-10 2.35971e-06 3.98361e-08
631 5 0.001 0.00352964 0 -0.0223471 -2.42273e-10 0 1.13871e-10 1.03217e-06 1.15604e-08
632 5 0.001 0.00368313 0 -0.0217303 -2.3025e-10 0 1.04446e-10 1.18449e-06 1.20351e-08
780 6 0.001 0.00598703 0 -0.0222124 -2.7161e-10 0 7.37857e-11 5.31414e-07 6.0837e-09
781 6 0.001 0.00605956 0 -0.0215804 -2.61679e-10 0 6.52979e-11 6.10331e-07 6.2617e-09
929 7 0.001 0.0090477 0 -0.0225456 -1.22191e-10 0 5.43875e-12 3.47356e-07 5.62631e-09
930 7 0.001 0.00904227 0 -0.0219094 -1.40597e-10 0 1.53608e-11 3.89734e-07 5.71792e-09
931 7 0.001 0.00902432 0 -0.0212735 -1.26822e-10 0 1.07366e-12 4.32403e-07 5.81091e-09
1079 8 0.001 0.0126373 0 -0.022484 9.33852e-11 0 -2.94655e-11 3.22238e-07 5.96784e-09
1080 8 0.001 0.0125554 0 -0.0218531 1.2563e-10 0 -2.62515e-11 3.47082e-07 6.02306e-09
1081 8 0.001 0.0124619 0 -0.0212239 1.1359e-10 0 -2.59482e-11 3.70915e-07 6.07627e-09
1229 9 0.001 0.0164403 0 -0.0225384 -5.07469e-10 0 -1.01729e-10 3.10629e-07 5.47648e-09
1231 9 0.001 0.0161358 0 -0.0213029 -5.62044e-10 0 -1.20004e-10 3.34113e-07 5.52647e-09
1230 9 0.001 0.0162936 0 -0.0219193 -5.55694e-10 0 -1.18774e-10 3.23096e-07 5.50299e-09
1380 10 0.001 0.020289 0 -0.0220533 6.29209e-11 0 -2.09262e-11 3.28971e-07 5.30461e-09
1381 10 0.001 0.0200773 0 -0.0214533 7.76605e-11 0 -2.10608e-11 3.31145e-07 5.30915e-09
42 1 0.001 -0.00640668 0 -0.0210898 -3.56524e-11 0 6.32012e-11 3.94853e-06 2.06668e-08
43 1 0.001 -0.00618113 0 -0.0204962 -2.63444e-11 0 4.54378e-11 4.17136e-06 2.15989e-08
44 1 0.001 -0.00599437 0 -0.0198895 -2.80305e-11 0 5.28547e-11 4.35684e-06 2.23905e-08
190 2 0.001 -0.00318089 0 -0.0210553 1.56445e-11 0 -1.09398e-10 3.64177e-06 2.20426e-08
191 2 0.001 -0.0029705 0 -0.0204563 -1.17366e-11 0 -1.0303e-10 3.8725e-06 2.30398e-08