ITEM: TIMESTEP
0
ITEM: NUMBER OF ATOMS
50
ITEM: BOX BOUNDS ff ff ff
-5.0000000000000003e-02 5.0000000000000003e-02
-1.4999999999999999e-02 1.4999999999999999e-02
-5.0000000000000003e-02 5.0000000000000003e-02
ITEM: ATOMS id type radius x y z fx fy fz c_bendingE c_stretchingE
1 1 0.0015 -0.04 0 -0.0035 0 0 0 0 0
6 2 0.0015 -0.0311111 0 -0.0035 0 0 0 0 0
11 3 0.0015 -0.0222222 0 -0.0035 0 0 0 0 0
16 4 0.0015 -0.0133333 0 -0.0035 0 0 0 0 0
21 5 0.0015 -0.00444444 0 -0.0035 0 0 0 0 0
26 6 0.0015 0.00444444 0 -0.0035 0 0 0 0 0
31 7 0.0015 0.0133333 0 -0.0035 0 0 0 0 0
36 8 0.0015 0.0222222 0 -0.0035 0 0 0 0 0
41 9 0.0015 0.0311111 0 -0.0035 0 0 0 0 0
46 10 0.0015 0.04 0 -0.0035 0 0 0 0 0
2 1 0.0015 -0.04 0 -0.00175 0 0 -2.77556e-17 0 0
7 2 0.0015 -0.0311111 0 -0.00175 0 0 -2.77556e-17 0 0
12 3 0.0015 -0.0222222 0 -0.00175 0 0 -2.77556e-17 0 0
17 4 0.0015 -0.0133333 0 -0.00175 0 0 -2.77556e-17 0 0
22 5 0.0015 -0.00444444 0 -0.00175 0 0 -2.77556e-17 0 0
27 6 0.0015 0.00444444 0 -0.00175 0 0 -2.77556e-17 0 0
32 7 0.0015 0.0133333 0 -0.00175 0 0 -2.77556e-17 0 0
37 8 0.0015 0.0222222 0 -0.00175 0 0 -2.77556e-17 0 0
42 9 0.0015 0.0311111 0 -0.00175 0 0 -2.77556e-17 0 0
47 10 0.0015 0.04 0 -0.00175 0 0 -2.77556e-17 0 0
3 1 0.0015 -0.04 0 0 0 0 1.67029e-16 0 6.0454e-36
4 1 0.0015 -0.04 0 0.00175 0 0 -2.23036e-16 0 1.20908e-35
8 2 0.0015 -0.0311111 0 0 0 0 1.67029e-16 0 6.0454e-36
9 2 0.0015 -0.0311111 0 0.00175 0 0 -2.23036e-16 0 1.20908e-35
13 3 0.0015 -0.0222222 0 0 0 0 1.67029e-16 0 6.0454e-36
14 3 0.0015 -0.0222222 0 0.00175 0 0 -2.23036e-16 0 1.20908e-35
18 4 0.0015 -0.0133333 0 0 0 0 1.67029e-16 0 6.0454e-36
19 4 0.0015 -0.0133333 0 0.00175 0 0 -2.23036e-16 0 1.20908e-35
23 5 0.0015 -0.00444444 0 0 0 0 1.67029e-16 0 6.0454e-36
24 5 0.0015 -0.00444444 0 0.00175 0 0 -2.23036e-16 0 1.20908e-35
28 6 0.0015 0.00444444 0 0 0 0 1.67029e-16 0 6.0454e-36
29 6 0.0015 0.00444444 0 0.00175 0 0 -2.23036e-16 0 1.20908e-35
33 7 0.0015 0.0133333 0 0 0 0 1.67029e-16 0 6.0454e-36
34 7 0.0015 0.0133333 0 0.00175 0 0 -2.23036e-16 0 1.20908e-35
38 8 0.0015 0.0222222 0 0 0 0 1.67029e-16 0 6.0454e-36
39 8 0.0015 0.0222222 0 0.00175 0 0 -2.23036e-16 0 1.20908e-35
43 9 0.0015 0.0311111 0 0 0 0 1.67029e-16 0 6.0454e-36
44 9 0.0015 0.0311111 0 0.00175 0 0 -2.23036e-16 0 1.20908e-35
48 10 0.0015 0.04 0 0 0 0 1.67029e-16 0 6.0454e-36
49 10 0.0015 0.04 0 0.00175 0 0 -2.23036e-16 0 1.20908e-35
5 1 0.0015 -0.04 0 0.0035 0 0 8.37624e-17 0 6.0454e-36
10 2 0.0015 -0.0311111 0 0.0035 0 0 8.37624e-17 0 6.0454e-36
15 3 0.0015 -0.0222222 0 0.0035 0 0 8.37624e-17 0 6.0454e-36
20 4 0.0015 -0.0133333 0 0.0035 0 0 8.37624e-17 0 6.0454e-36
25 5 0.0015 -0.00444444 0 0.0035 0 0 8.37624e-17 0 6.0454e-36
30 6 0.0015 0.00444444 0 0.0035 0 0 8.37624e-17 0 6.0454e-36
35 7 0.0015 0.0133333 0 0.0035 0 0 8.37624e-17 0 6.0454e-36
40 8 0.0015 0.0222222 0 0.0035 0 0 8.37624e-17 0 6.0454e-36
45 9 0.0015 0.0311111 0 0.0035 0 0 8.37624e-17 0 6.0454e-36
50 10 0.0015 0.04 0 0.0035 0 0 8.37624e-17 0 6.0454e-36
