ITEM: TIMESTEP
9800000
ITEM: NUMBER OF ATOMS
1500
ITEM: BOX BOUNDS ff ff ff
-2.5000000000000001e-02 2.5000000000000001e-02
-5.0000000000000001e-03 5.0000000000000001e-03
-5.0000000000000003e-02 5.0000000000000003e-02
ITEM: ATOMS id type radius x y z fx fy fz c_bendingE c_stretchingE
1 1 0.001 -0.0224999 0 -0.0475 2.7719e-25 0 4.01002e-12 0 6.67471e-28
151 2 0.001 -0.0174999 0 -0.0475 2.7719e-25 0 4.01002e-12 0 6.67471e-28
301 3 0.001 -0.0125001 0 -0.0475 -2.7719e-25 0 4.01002e-12 0 6.67471e-28
451 4 0.001 -0.0075001 0 -0.0475 -2.7719e-25 0 4.01002e-12 0 6.67471e-28
601 5 0.001 -0.0025001 0 -0.0475 -2.7719e-25 0 4.01002e-12 0 6.67471e-28
751 6 0.001 0.0025001 0 -0.0475 2.7719e-25 0 4.01002e-12 0 6.67471e-28
901 7 0.001 0.0074999 0 -0.0475 -2.7719e-25 0 4.01002e-12 0 6.67471e-28
1051 8 0.001 0.0125001 0 -0.0475 2.7719e-25 0 4.01002e-12 0 6.67471e-28
1201 9 0.001 0.0174999 0 -0.0475 -2.7719e-25 0 4.01002e-12 0 6.67471e-28
1351 10 0.001 0.0224999 0 -0.0475 -2.7719e-25 0 4.01002e-12 0 6.67471e-28
2 1 0.001 -0.0224999 0 -0.0468624 2.7719e-25 0 -6.22696e-12 0 8.71473e-28
3 1 0.001 -0.0224999 0 -0.0462248 2.7719e-25 0 3.594e-12 0 2.82726e-28
4 1 0.001 -0.0224999 0 -0.0455872 2.7719e-25 0 -2.25719e-12 0 1.10838e-28
152 2 0.001 -0.0174999 0 -0.0468624 2.7719e-25 0 -6.22696e-12 0 8.71473e-28
153 2 0.001 -0.0174999 0 -0.0462248 2.7719e-25 0 3.594e-12 0 2.82726e-28
154 2 0.001 -0.0174999 0 -0.0455872 2.7719e-25 0 -2.25719e-12 0 1.10838e-28
302 3 0.001 -0.0125001 0 -0.0468624 -2.7719e-25 0 -6.22696e-12 0 8.71473e-28
303 3 0.001 -0.0125001 0 -0.0462248 -2.7719e-25 0 3.594e-12 0 2.82726e-28
304 3 0.001 -0.0125001 0 -0.0455872 -2.7719e-25 0 -2.25719e-12 0 1.10838e-28
452 4 0.001 -0.0075001 0 -0.0468624 -2.7719e-25 0 -6.22696e-12 0 8.71473e-28
453 4 0.001 -0.0075001 0 -0.0462248 -2.7719e-25 0 3.594e-12 0 2.82726e-28
454 4 0.001 -0.0075001 0 -0.0455872 -2.7719e-25 0 -2.25719e-12 0 1.10838e-28
602 5 0.001 -0.0025001 0 -0.0468624 -2.7719e-25 0 -6.22696e-12 0 8.71473e-28
603 5 0.001 -0.0025001 0 -0.0462248 -2.7719e-25 0 3.594e-12 0 2.82726e-28
604 5 0.001 -0.0025001 0 -0.0455872 -2.7719e-25 0 -2.25719e-12 0 1.10838e-28
752 6 0.001 0.0025001 0 -0.0468624 2.7719e-25 0 -6.22696e-12 0 8.71473e-28
753 6 0.001 0.0025001 0 -0.0462248 2.7719e-25 0 3.594e-12 0 2.82726e-28
754 6 0.001 0.0025001 0 -0.0455872 2.7719e-25 0 -2.25719e-12 0 1.10838e-28
902 7 0.001 0.0074999 0 -0.0468624 -2.7719e-25 0 -6.22696e-12 0 8.71473e-28
903 7 0.001 0.0074999 0 -0.0462248 -2.7719e-25 0 3.594e-12 0 2.82726e-28
904 7 0.001 0.0074999 0 -0.0455872 -2.7719e-25 0 -2.25719e-12 0 1.10838e-28
1052 8 0.001 0.0125001 0 -0.0468624 2.7719e-25 0 -6.22696e-12 0 8.71473e-28
1053 8 0.001 0.0125001 0 -0.0462248 2.7719e-25 0 3.594e-12 0 2.82726e-28
1054 8 0.001 0.0125001 0 -0.0455872 2.7719e-25 0 -2.25719e-12 0 1.10838e-28
1202 9 0.001 0.0174999 0 -0.0468624 -2.7719e-25 0 -6.22696e-12 0 8.71473e-28
1203 9 0.001 0.0174999 0 -0.0462248 -2.7719e-25 0 3.594e-12 0 2.82726e-28
1204 9 0.001 0.0174999 0 -0.0455872 -2.7719e-25 0 -2.25719e-12 0 1.10838e-28
1352 10 0.001 0.0224999 0 -0.0468624 -2.7719e-25 0 -6.22696e-12 0 8.71473e-28
1353 10 0.001 0.0224999 0 -0.0462248 -2.7719e-25 0 3.594e-12 0 2.82726e-28
1354 10 0.001 0.0224999 0 -0.0455872 -2.7719e-25 0 -2.25719e-12 0 1.10838e-28
5 1 0.001 -0.0224999 0 -0.0449497 2.7719e-25 0 -3.09215e-12 0 6.87036e-28
6 1 0.001 -0.0224999 0 -0.0443121 2.7719e-25 0 5.13948e-12 0 7.1157e-28
155 2 0.001 -0.0174999 0 -0.0449497 2.7719e-25 0 -3.09215e-12 0 6.87036e-28
156 2 0.001 -0.0174999 0 -0.0443121 2.7719e-25 0 5.13948e-12 0 7.1157e-28
305 3 0.001 -0.0125001 0 -0.0449497 -2.7719e-25 0 -3.09215e-12 0 6.87036e-28
306 3 0.001 -0.0125001 0 -0.0443121 -2.7719e-25 0 5.13948e-12 0 7.1157e-28
455 4 0.001 -0.0075001 0 -0.0449497 -2.7719e-25 0 -3.09215e-12 0 6.87036e-28
456 4 0.001 -0.0075001 0 -0.0443121 -2.7719e-25 0 5.13948e-12 0 7.1157e-28
605 5 0.001 -0.0025001 0 -0.0449497 -2.7719e-25 0 -3.09215e-12 0 6.87036e-28
606 5 0.001 -0.0025001 0 -0.0443121 -2.7719e-25 0 5.13948e-12 0 7.1157e-28
755 6 0.001 0.0025001 0 -0.0449497 2.7719e-25 0 -3.09215e-12 0 6.87036e-28
756 6 0.001 0.0025001 0 -0.0443121 2.7719e-25 0 5.13948e-12 0 7.1157e-28
905 7 0.001 0.0074999 0 -0.0449497 -2.7719e-25 0 -3.09215e-12 0 6.87036e-28
906 7 0.001 0.0074999 0 -0.0443121 -2.7719e-25 0 5.13948e-12 0 7.1157e-28
1055 8 0.001 0.0125001 0 -0.0449497 2.7719e-25 0 -3.09215e-12 0 6.87036e-28
1056 8 0.001 0.0125001 0 -0.0443121 2.7719e-25 0 5.13948e-12 0 7.1157e-28
1205 9 0.001 0.0174999 0 -0.0449497 -2.7719e-25 0 -3.09215e-12 0 6.87036e-28
1206 9 0.001 0.0174999 0 -0.0443121 -2.7719e-25 0 5.13948e-12 0 7.1157e-28
1355 10 0.001 0.0224999 0 -0.0449497 -2.7719e-25 0 -3.09215e-12 0 6.87036e-28
1356 10 0.001 0.0224999 0 -0.0443121 -2.7719e-25 0 5.13948e-12 0 7.1157e-28
7 1 0.001 -0.0224999 0 -0.0436745 2.7719e-25 0 -6.68081e-13 0 6.70048e-29
8 1 0.001 -0.0224999 0 -0.0430369 2.7719e-25 0 5.01941e-13 0 5.19528e-29
157 2 0.001 -0.0174999 0 -0.0436745 2.7719e-25 0 -6.68081e-13 0 6.70048e-29
158 2 0.001 -0.0174999 0 -0.0430369 2.7719e-25 0 5.01941e-13 0 5.19528e-29
307 3 0.001 -0.0125001 0 -0.0436745 -2.7719e-25 0 -6.68081e-13 0 6.70048e-29
308 3 0.001 -0.0125001 0 -0.0430369 -2.7719e-25 0 5.01941e-13 0 5.19528e-29
457 4 0.001 -0.0075001 0 -0.0436745 -2.7719e-25 0 -6.68081e-13 0 6.70048e-29
458 4 0.001 -0.0075001 0 -0.0430369 -2.7719e-25 0 5.01941e-13 0 5.19528e-29
607 5 0.001 -0.0025001 0 -0.0436745 -2.7719e-25 0 -6.68081e-13 0 6.70048e-29
608 5 0.001 -0.0025001 0 -0.0430369 -2.7719e-25 0 5.01941e-13 0 5.19528e-29
757 6 0.001 0.0025001 0 -0.0436745 2.7719e-25 0 -6.68081e-13 0 6.70048e-29
758 6 0.001 0.0025001 0 -0.0430369 2.7719e-25 0 5.01941e-13 0 5.19528e-29
907 7 0.001 0.0074999 0 -0.0436745 -2.7719e-25 0 -6.68081e-13 0 6.70048e-29
908 7 0.001 0.0074999 0 -0.0430369 -2.7719e-25 0 5.01941e-13 0 5.19528e-29
1057 8 0.001 0.0125001 0 -0.0436745 2.7719e-25 0 -6.68081e-13 0 6.70048e-29
1058 8 0.001 0.0125001 0 -0.0430369 2.7719e-25 0 5.01941e-13 0 5.19528e-29
1207 9 0.001 0.0174999 0 -0.0436745 -2.7719e-25 0 -6.68081e-13 0 6.70048e-29
1208 9 0.001 0.0174999 0 -0.0430369 -2.7719e-25 0 5.01941e-13 0 5.19528e-29
1357 10 0.001 0.0224999 0 -0.0436745 -2.7719e-25 0 -6.68081e-13 0 6.70048e-29
1358 10 0.001 0.0224999 0 -0.0430369 -2.7719e-25 0 5.01941e-13 0 5.19528e-29
9 1 0.001 -0.0224999 0 -0.0423993 2.7719e-25 0 -2.29823e-12 0 1.11474e-28
10 1 0.001 -0.0224999 0 -0.0417617 2.7719e-25 0 1.50457e-12 0 7.16581e-29
11 1 0.001 -0.0224999 0 -0.0411242 2.7719e-25 0 3.13436e-12 0 4.6521e-28
159 2 0.001 -0.0174999 0 -0.0423993 2.7719e-25 0 -2.29823e-12 0 1.11474e-28
160 2 0.001 -0.0174999 0 -0.0417617 2.7719e-25 0 1.50457e-12 0 7.16581e-29
161 2 0.001 -0.0174999 0 -0.0411242 2.7719e-25 0 3.13436e-12 0 4.6521e-28
309 3 0.001 -0.0125001 0 -0.0423993 -2.7719e-25 0 -2.29823e-12 0 1.11474e-28
310 3 0.001 -0.0125001 0 -0.0417617 -2.7719e-25 0 1.50457e-12 0 7.16581e-29
311 3 0.001 -0.0125001 0 -0.0411242 -2.7719e-25 0 3.13436e-12 0 4.6521e-28
459 4 0.001 -0.0075001 0 -0.0423993 -2.7719e-25 0 -2.29823e-12 0 1.11474e-28
460 4 0.001 -0.0075001 0 -0.0417617 -2.7719e-25 0 1.50457e-12 0 7.16581e-29
461 4 0.001 -0.0075001 0 -0.0411242 -2.7719e-25 0 3.13436e-12 0 4.6521e-28
609 5 0.001 -0.0025001 0 -0.0423993 -2.7719e-25 0 -2.29823e-12 0 1.11474e-28
610 5 0.001 -0.0025001 0 -0.0417617 -2.7719e-25 0 1.50457e-12 0 7.16581e-29
611 5 0.001 -0.0025001 0 -0.0411242 -2.7719e-25 0 3.13436e-12 0 4.6521e-28
759 6 0.001 0.0025001 0 -0.0423993 2.7719e-25 0 -2.29823e-12 0 1.11474e-28
760 6 0.001 0.0025001 0 -0.0417617 2.7719e-25 0 1.50457e-12 0 7.16581e-29
761 6 0.001 0.0025001 0 -0.0411242 2.7719e-25 0 3.13436e-12 0 4.6521e-28
909 7 0.001 0.0074999 0 -0.0423993 -2.7719e-25 0 -2.29823e-12 0 1.11474e-28
910 7 0.001 0.0074999 0 -0.0417617 -2.7719e-25 0 1.50457e-12 0 7.16581e-29
911 7 0.001 0.0074999 0 -0.0411242 -2.7719e-25 0 3.13436e-12 0 4.6521e-28
1059 8 0.001 0.0125001 0 -0.0423993 2.7719e-25 0 -2.29823e-12 0 1.11474e-28
1060 8 0.001 0.0125001 0 -0.0417617 2.7719e-25 0 1.50457e-12 0 7.16581e-29
1061 8 0.001 0.0125001 0 -0.0411242 2.7719e-25 0 3.13436e-12 0 4.6521e-28
1209 9 0.001 0.0174999 0 -0.0423993 -2.7719e-25 0 -2.29823e-12 0 1.11474e-28
1210 9 0.001 0.0174999 0 -0.0417617 -2.7719e-25 0 1.50457e-12 0 7.16581e-29
1211 9 0.001 0.0174999 0 -0.0411242 -2.7719e-25 0 3.13436e-12 0 4.6521e-28
1359 10 0.001 0.0224999 0 -0.0423993 -2.7719e-25 0 -2.29823e-12 0 1.11474e-28
1360 10 0.001 0.0224999 0 -0.0417617 -2.7719e-25 0 1.50457e-12 0 7.16581e-29
1361 10 0.001 0.0224999 0 -0.0411242 -2.7719e-25 0 3.13436e-12 0 4.6521e-28
12 1 0.001 -0.0224999 0 -0.0404866 2.7719e-25 0 -7.85768e-12 0 1.30976e-27
13 1 0.001 -0.0224999 0 -0.039849 2.7719e-25 0 8.23379e-12 0 1.41996e-27
162 2 0.001 -0.0174999 0 -0.0404866 2.7719e-25 0 -7.85768e-12 0 1.30976e-27
163 2 0.001 -0.0174999 0 -0.039849 2.7719e-25 0 8.23379e-12 0 1.41996e-27
312 3 0.001 -0.0125001 0 -0.0404866 -2.7719e-25 0 -7.85768e-12 0 1.30976e-27
313 3 0.001 -0.0125001 0 -0.039849 -2.7719e-25 0 8.23379e-12 0 1.41996e-27
462 4 0.001 -0.0075001 0 -0.0404866 -2.7719e-25 0 -7.85768e-12 0 1.30976e-27
463 4 0.001 -0.0075001 0 -0.039849 -2.7719e-25 0 8.23379e-12 0 1.41996e-27
612 5 0.001 -0.0025001 0 -0.0404866 -2.7719e-25 0 -7.85768e-12 0 1.30976e-27
613 5 0.001 -0.0025001 0 -0.039849 -2.7719e-25 0 8.23379e-12 0 1.41996e-27
762 6 0.001 0.0025001 0 -0.0404866 2.7719e-25 0 -7.85768e-12 0 1.30976e-27
763 6 0.001 0.0025001 0 -0.039849 2.7719e-25 0 8.23379e-12 0 1.41996e-27
912 7 0.001 0.0074999 0 -0.0404866 -2.7719e-25 0 -7.85768e-12 0 1.30976e-27
913 7 0.001 0.0074999 0 -0.039849 -2.7719e-25 0 8.23379e-12 0 1.41996e-27
1062 8 0.001 0.0125001 0 -0.0404866 2.7719e-25 0 -7.85768e-12 0 1.30976e-27
1063 8 0.001 0.0125001 0 -0.039849 2.7719e-25 0 8.23379e-12 0 1.41996e-27
1212 9 0.001 0.0174999 0 -0.0404866 -2.7719e-25 0 -7.85768e-12 0 1.30976e-27
1213 9 0.001 0.0174999 0 -0.039849 -2.7719e-25 0 8.23379e-12 0 1.41996e-27
1362 10 0.001 0.0224999 0 -0.0404866 -2.7719e-25 0 -7.85768e-12 0 1.30976e-27
1363 10 0.001 0.0224999 0 -0.039849 -2.7719e-25 0 8.23379e-12 0 1.41996e-27
14 1 0.001 -0.0224999 0 -0.0392114 2.7719e-25 0 -5.89249e-12 0 7.70019e-28
15 1 0.001 -0.0224999 0 -0.0385738 2.7719e-25 0 7.11036e-13 0 2.85429e-28
16 1 0.001 -0.0224999 0 -0.0379362 2.7719e-25 0 1.83829e-12 0 9.48569e-29
164 2 0.001 -0.0174999 0 -0.0392114 2.7719e-25 0 -5.89249e-12 0 7.70019e-28
165 2 0.001 -0.0174999 0 -0.0385738 2.7719e-25 0 7.11036e-13 0 2.85429e-28
166 2 0.001 -0.0174999 0 -0.0379362 2.7719e-25 0 1.83829e-12 0 9.48569e-29
314 3 0.001 -0.0125001 0 -0.0392114 -2.7719e-25 0 -5.89249e-12 0 7.70019e-28
315 3 0.001 -0.0125001 0 -0.0385738 -2.7719e-25 0 7.11036e-13 0 2.85429e-28
316 3 0.001 -0.0125001 0 -0.0379362 -2.7719e-25 0 1.83829e-12 0 9.48569e-29
464 4 0.001 -0.0075001 0 -0.0392114 -2.7719e-25 0 -5.89249e-12 0 7.70019e-28
465 4 0.001 -0.0075001 0 -0.0385738 -2.7719e-25 0 7.11036e-13 0 2.85429e-28
466 4 0.001 -0.0075001 0 -0.0379362 -2.7719e-25 0 1.83829e-12 0 9.48569e-29
614 5 0.001 -0.0025001 0 -0.0392114 -2.7719e-25 0 -5.89249e-12 0 7.70019e-28
615 5 0.001 -0.0025001 0 -0.0385738 -2.7719e-25 0 7.11036e-13 0 2.85429e-28
616 5 0.001 -0.0025001 0 -0.0379362 -2.7719e-25 0 1.83829e-12 0 9.48569e-29
764 6 0.001 0.0025001 0 -0.0392114 2.7719e-25 0 -5.89249e-12 0 7.70019e-28
765 6 0.001 0.0025001 0 -0.0385738 2.7719e-25 0 7.11036e-13 0 2.85429e-28
766 6 0.001 0.0025001 0 -0.0379362 2.7719e-25 0 1.83829e-12 0 9.48569e-29
914 7 0.001 0.0074999 0 -0.0392114 -2.7719e-25 0 -5.89249e-12 0 7.70019e-28
915 7 0.001 0.0074999 0 -0.0385738 -2.7719e-25 0 7.11036e-13 0 2.85429e-28
916 7 0.001 0.0074999 0 -0.0379362 -2.7719e-25 0 1.83829e-12 0 9.48569e-29
1064 8 0.001 0.0125001 0 -0.0392114 2.7719e-25 0 -5.89249e-12 0 7.70019e-28
1065 8 0.001 0.0125001 0 -0.0385738 2.7719e-25 0 7.11036e-13 0 2.85429e-28
1066 8 0.001 0.0125001 0 -0.0379362 2.7719e-25 0 1.83829e-12 0 9.48569e-29
1214 9 0.001 0.0174999 0 -0.0392114 -2.7719e-25 0 -5.89249e-12 0 7.70019e-28
1215 9 0.001 0.0174999 0 -0.0385738 -2.7719e-25 0 7.11036e-13 0 2.85429e-28
1216 9 0.001 0.0174999 0 -0.0379362 -2.7719e-25 0 1.83829e-12 0 9.48569e-29
1364 10 0.001 0.0224999 0 -0.0392114 -2.7719e-25 0 -5.89249e-12 0 7.70019e-28
1365 10 0.001 0.0224999 0 -0.0385738 -2.7719e-25 0 7.11036e-13 0 2.85429e-28
1366 10 0.001 0.0224999 0 -0.0379362 -2.7719e-25 0 1.83829e-12 0 9.48569e-29
17 1 0.001 -0.0224999 0 -0.0372987 2.7719e-25 0 -2.79983e-12 0 2.50082e-28
18 1 0.001 -0.0224999 0 -0.0366611 2.7719e-25 0 4.05396e-12 0 3.54273e-28
167 2 0.001 -0.0174999 0 -0.0372987 2.7719e-25 0 -2.79983e-12 0 2.50082e-28
168 2 0.001 -0.0174999 0 -0.0366611 2.7719e-25 0 4.05396e-12 0 3.54273e-28
317 3 0.001 -0.0125001 0 -0.0372987 -2.7719e-25 0 -2.79983e-12 0 2.50082e-28
318 3 0.001 -0.0125001 0 -0.0366611 -2.7719e-25 0 4.05396e-12 0 3.54273e-28
467 4 0.001 -0.0075001 0 -0.0372987 -2.7719e-25 0 -2.79983e-12 0 2.50082e-28
468 4 0.001 -0.0075001 0 -0.0366611 -2.7719e-25 0 4.05396e-12 0 3.54273e-28
617 5 0.001 -0.0025001 0 -0.0372987 -2.7719e-25 0 -2.79983e-12 0 2.50082e-28
618 5 0.001 -0.0025001 0 -0.0366611 -2.7719e-25 0 4.05396e-12 0 3.54273e-28
767 6 0.001 0.0025001 0 -0.0372987 2.7719e-25 0 -2.79983e-12 0 2.50082e-28
768 6 0.001 0.0025001 0 -0.0366611 2.7719e-25 0 4.05396e-12 0 3.54273e-28
917 7 0.001 0.0074999 0 -0.0372987 -2.7719e-25 0 -2.79983e-12 0 2.50082e-28
918 7 0.001 0.0074999 0 -0.0366611 -2.7719e-25 0 4.05396e-12 0 3.54273e-28
1067 8 0.001 0.0125001 0 -0.0372987 2.7719e-25 0 -2.79983e-12 0 2.50082e-28
1068 8 0.001 0.0125001 0 -0.0366611 2.7719e-25 0 4.05396e-12 0 3.54273e-28
1217 9 0.001 0.0174999 0 -0.0372987 -2.7719e-25 0 -2.79983e-12 0 2.50082e-28
1218 9 0.001 0.0174999 0 -0.0366611 -2.7719e-25 0 4.05396e-12 0 3.54273e-28
1367 10 0.001 0.0224999 0 -0.0372987 -2.7719e-25 0 -2.79983e-12 0 2.50082e-28
1368 10 0.001 0.0224999 0 -0.0366611 -2.7719e-25 0 4.05396e-12 0 3.54273e-28
19 1 0.001 -0.0224999 0 -0.0360235 2.7719e-25 0 1.88008e-12 0 6.20963e-28
20 1 0.001 -0.0224999 0 -0.0353859 2.7719e-25 0 -2.88449e-12 0 5.27171e-28
169 2 0.001 -0.0174999 0 -0.0360235 2.7719e-25 0 1.88008e-12 0 6.20963e-28
170 2 0.001 -0.0174999 0 -0.0353859 2.7719e-25 0 -2.88449e-12 0 5.27171e-28
319 3 0.001 -0.0125001 0 -0.0360235 -2.7719e-25 0 1.88008e-12 0 6.20963e-28
320 3 0.001 -0.0125001 0 -0.0353859 -2.7719e-25 0 -2.88449e-12 0 5.27171e-28
469 4 0.001 -0.0075001 0 -0.0360235 -2.7719e-25 0 1.88008e-12 0 6.20963e-28
470 4 0.001 -0.0075001 0 -0.0353859 -2.7719e-25 0 -2.88449e-12 0 5.27171e-28
619 5 0.001 -0.0025001 0 -0.0360235 -2.7719e-25 0 1.88008e-12 0 6.20963e-28
620 5 0.001 -0.0025001 0 -0.0353859 -2.7719e-25 0 -2.88449e-12 0 5.27171e-28
769 6 0.001 0.0025001 0 -0.0360235 2.7719e-25 0 1.88008e-12 0 6.20963e-28
770 6 0.001 0.0025001 0 -0.0353859 2.7719e-25 0 -2.88449e-12 0 5.27171e-28
919 7 0.001 0.0074999 0 -0.0360235 -2.7719e-25 0 1.88008e-12 0 6.20963e-28
920 7 0.001 0.0074999 0 -0.0353859 -2.7719e-25 0 -2.88449e-12 0 5.27171e-28
1069 8 0.001 0.0125001 0 -0.0360235 2.7719e-25 0 1.88008e-12 0 6.20963e-28
1070 8 0.001 0.0125001 0 -0.0353859 2.7719e-25 0 -2.88449e-12 0 5.27171e-28
1219 9 0.001 0.0174999 0 -0.0360235 -2.7719e-25 0 1.88008e-12 0 6.20963e-28
1220 9 0.001 0.0174999 0 -0.0353859 -2.7719e-25 0 -2.88449e-12 0 5.27171e-28
1369 10 0.001 0.0224999 0 -0.0360235 -2.7719e-25 0 1.88008e-12 0 6.20963e-28
1370 10 0.001 0.0224999 0 -0.0353859 -2.7719e-25 0 -2.88449e-12 0 5.27171e-28
21 1 0.001 -0.0224999 0 -0.0347483 2.7719e-25 0 -1.4204e-12 0 4.25102e-29
22 1 0.001 -0.0224999 0 -0.0341107 2.7719e-25 0 3.97084e-12 0 4.44521e-28
23 1 0.001 -0.0224999 0 -0.0334732 2.7719e-25 0 -7.18834e-12 0 1.087e-27
171 2 0.001 -0.0174999 0 -0.0347483 2.7719e-25 0 -1.4204e-12 0 4.25102e-29
172 2 0.001 -0.0174999 0 -0.0341107 2.7719e-25 0 3.97084e-12 0 4.44521e-28
173 2 0.001 -0.0174999 0 -0.0334732 2.7719e-25 0 -7.18834e-12 0 1.087e-27
321 3 0.001 -0.0125001 0 -0.0347483 -2.7719e-25 0 -1.4204e-12 0 4.25102e-29
322 3 0.001 -0.0125001 0 -0.0341107 -2.7719e-25 0 3.97084e-12 0 4.44521e-28
323 3 0.001 -0.0125001 0 -0.0334732 -2.7719e-25 0 -7.18834e-12 0 1.087e-27
471 4 0.001 -0.0075001 0 -0.0347483 -2.7719e-25 0 -1.4204e-12 0 4.25102e-29
472 4 0.001 -0.0075001 0 -0.0341107 -2.7719e-25 0 3.97084e-12 0 4.44521e-28
473 4 0.001 -0.0075001 0 -0.0334732 -2.7719e-25 0 -7.18834e-12 0 1.087e-27
621 5 0.001 -0.0025001 0 -0.0347483 -2.7719e-25 0 -1.4204e-12 0 4.25102e-29
622 5 0.001 -0.0025001 0 -0.0341107 -2.7719e-25 0 3.97084e-12 0 4.44521e-28
623 5 0.001 -0.0025001 0 -0.0334732 -2.7719e-25 0 -7.18834e-12 0 1.087e-27
771 6 0.001 0.0025001 0 -0.0347483 2.7719e-25 0 -1.4204e-12 0 4.25102e-29
772 6 0.001 0.0025001 0 -0.0341107 2.7719e-25 0 3.97084e-12 0 4.44521e-28
773 6 0.001 0.0025001 0 -0.0334732 2.7719e-25 0 -7.18834e-12 0 1.087e-27
921 7 0.001 0.0074999 0 -0.0347483 -2.7719e-25 0 -1.4204e-12 0 4.25102e-29
922 7 0.001 0.0074999 0 -0.0341107 -2.7719e-25 0 3.97084e-12 0 4.44521e-28
923 7 0.001 0.0074999 0 -0.0334732 -2.7719e-25 0 -7.18834e-12 0 1.087e-27
1071 8 0.001 0.0125001 0 -0.0347483 2.7719e-25 0 -1.4204e-12 0 4.25102e-29
1072 8 0.001 0.0125001 0 -0.0341107 2.7719e-25 0 3.97084e-12 0 4.44521e-28
1073 8 0.001 0.0125001 0 -0.0334732 2.7719e-25 0 -7.18834e-12 0 1.087e-27
1221 9 0.001 0.0174999 0 -0.0347483 -2.7719e-25 0 -1.4204e-12 0 4.25102e-29
1222 9 0.001 0.0174999 0 -0.0341107 -2.7719e-25 0 3.97084e-12 0 4.44521e-28
1223 9 0.001 0.0174999 0 -0.0334732 -2.7719e-25 0 -7.18834e-12 0 1.087e-27
1371 10 0.001 0.0224999 0 -0.0347483 -2.7719e-25 0 -1.4204e-12 0 4.25102e-29
1372 10 0.001 0.0224999 0 -0.0341107 -2.7719e-25 0 3.97084e-12 0 4.44521e-28
1373 10 0.001 0.0224999 0 -0.0334732 -2.7719e-25 0 -7.18834e-12 0 1.087e-27
24 1 0.001 -0.0224999 0 -0.0328356 2.7719e-25 0 7.47839e-12 0 1.16764e-27
25 1 0.001 -0.0224999 0 -0.032198 2.7719e-25 0 -9.15059e-12 0 1.84067e-27
174 2 0.001 -0.0174999 0 -0.0328356 2.7719e-25 0 7.47839e-12 0 1.16764e-27
175 2 0.001 -0.0174999 0 -0.032198 2.7719e-25 0 -9.15059e-12 0 1.84067e-27
324 3 0.001 -0.0125001 0 -0.0328356 -2.7719e-25 0 7.47839e-12 0 1.16764e-27
325 3 0.001 -0.0125001 0 -0.032198 -2.7719e-25 0 -9.15059e-12 0 1.84067e-27
474 4 0.001 -0.0075001 0 -0.0328356 -2.7719e-25 0 7.47839e-12 0 1.16764e-27
475 4 0.001 -0.0075001 0 -0.032198 -2.7719e-25 0 -9.15059e-12 0 1.84067e-27
624 5 0.001 -0.0025001 0 -0.0328356 -2.7719e-25 0 7.47839e-12 0 1.16764e-27
625 5 0.001 -0.0025001 0 -0.032198 -2.7719e-25 0 -9.15059e-12 0 1.84067e-27
774 6 0.001 0.0025001 0 -0.0328356 2.7719e-25 0 7.47839e-12 0 1.16764e-27
775 6 0.001 0.0025001 0 -0.032198 2.7719e-25 0 -9.15059e-12 0 1.84067e-27
924 7 0.001 0.0074999 0 -0.0328356 -2.7719e-25 0 7.47839e-12 0 1.16764e-27
925 7 0.001 0.0074999 0 -0.032198 -2.7719e-25 0 -9.15059e-12 0 1.84067e-27
1074 8 0.001 0.0125001 0 -0.0328356 2.7719e-25 0 7.47839e-12 0 1.16764e-27
1075 8 0.001 0.0125001 0 -0.032198 2.7719e-25 0 -9.15059e-12 0 1.84067e-27
1224 9 0.001 0.0174999 0 -0.0328356 -2.7719e-25 0 7.47839e-12 0 1.16764e-27
1225 9 0.001 0.0174999 0 -0.032198 -2.7719e-25 0 -9.15059e-12 0 1.84067e-27
1374 10 0.001 0.0224999 0 -0.0328356 -2.7719e-25 0 7.47839e-12 0 1.16764e-27
1375 10 0.001 0.0224999 0 -0.032198 -2.7719e-25 0 -9.15059e-12 0 1.84067e-27
26 1 0.001 -0.0224999 0 -0.0315604 2.7719e-25 0 8.33795e-12 0 1.6337e-27
27 1 0.001 -0.0224999 0 -0.0309228 2.7719e-25 0 -1.02367e-12 0 4.01892e-28
176 2 0.001 -0.0174999 0 -0.0315604 2.7719e-25 0 8.33795e-12 0 1.6337e-27
177 2 0.001 -0.0174999 0 -0.0309228 2.7719e-25 0 -1.02367e-12 0 4.01892e-28
326 3 0.001 -0.0125001 0 -0.0315604 -2.7719e-25 0 8.33795e-12 0 1.6337e-27
327 3 0.001 -0.0125001 0 -0.0309228 -2.7719e-25 0 -1.02367e-12 0 4.01892e-28
476 4 0.001 -0.0075001 0 -0.0315604 -2.7719e-25 0 8.33795e-12 0 1.6337e-27
477 4 0.001 -0.0075001 0 -0.0309228 -2.7719e-25 0 -1.02367e-12 0 4.01892e-28
626 5 0.001 -0.0025001 0 -0.0315604 -2.7719e-25 0 8.33795e-12 0 1.6337e-27
627 5 0.001 -0.0025001 0 -0.0309228 -2.7719e-25 0 -1.02367e-12 0 4.01892e-28
776 6 0.001 0.0025001 0 -0.0315604 2.7719e-25 0 8.33795e-12 0 1.6337e-27
777 6 0.001 0.0025001 0 -0.0309228 2.7719e-25 0 -1.02367e-12 0 4.01892e-28
926 7 0.001 0.0074999 0 -0.0315604 -2.7719e-25 0 8.33795e-12 0 1.6337e-27
927 7 0.001 0.0074999 0 -0.0309228 -2.7719e-25 0 -1.02367e-12 0 4.01892e-28
1076 8 0.001 0.0125001 0 -0.0315604 2.7719e-25 0 8.33795e-12 0 1.6337e-27
1077 8 0.001 0.0125001 0 -0.0309228 2.7719e-25 0 -1.02367e-12 0 4.01892e-28
1226 9 0.001 0.0174999 0 -0.0315604 -2.7719e-25 0 8.33795e-12 0 1.6337e-27
1227 9 0.001 0.0174999 0 -0.0309228 -2.7719e-25 0 -1.02367e-12 0 4.01892e-28
1376 10 0.001 0.0224999 0 -0.0315604 -2.7719e-25 0 8.33795e-12 0 1.6337e-27
1377 10 0.001 0.0224999 0 -0.0309228 -2.7719e-25 0 -1.02367e-12 0 4.01892e-28
28 1 0.001 -0.0224999 0 -0.0302852 2.7719e-25 0 -3.72106e-12 0 2.91582e-28
29 1 0.001 -0.0224999 0 -0.0296477 2.7719e-25 0 3.07357e-12 0 2.21457e-28
30 1 0.001 -0.0224999 0 -0.0290101 2.7719e-25 0 -1.69252e-12 0 6.09434e-29
178 2 0.001 -0.0174999 0 -0.0302852 2.7719e-25 0 -3.72106e-12 0 2.91582e-28
179 2 0.001 -0.0174999 0 -0.0296477 2.7719e-25 0 3.07357e-12 0 2.21457e-28
180 2 0.001 -0.0174999 0 -0.0290101 2.7719e-25 0 -1.69252e-12 0 6.09434e-29
328 3 0.001 -0.0125001 0 -0.0302852 -2.7719e-25 0 -3.72106e-12 0 2.91582e-28
329 3 0.001 -0.0125001 0 -0.0296477 -2.7719e-25 0 3.07357e-12 0 2.21457e-28
330 3 0.001 -0.0125001 0 -0.0290101 -2.7719e-25 0 -1.69252e-12 0 6.09434e-29
478 4 0.001 -0.0075001 0 -0.0302852 -2.7719e-25 0 -3.72106e-12 0 2.91582e-28
479 4 0.001 -0.0075001 0 -0.0296477 -2.7719e-25 0 3.07357e-12 0 2.21457e-28
480 4 0.001 -0.0075001 0 -0.0290101 -2.7719e-25 0 -1.69252e-12 0 6.09434e-29
628 5 0.001 -0.0025001 0 -0.0302852 -2.7719e-25 0 -3.72106e-12 0 2.91582e-28
629 5 0.001 -0.0025001 0 -0.0296477 -2.7719e-25 0 3.07357e-12 0 2.21457e-28
630 5 0.001 -0.0025001 0 -0.0290101 -2.7719e-25 0 -1.69252e-12 0 6.09434e-29
778 6 0.001 0.0025001 0 -0.0302852 2.7719e-25 0 -3.72106e-12 0 2.91582e-28
779 6 0.001 0.0025001 0 -0.0296477 2.7719e-25 0 3.07357e-12 0 2.21457e-28
780 6 0.001 0.0025001 0 -0.0290101 2.7719e-25 0 -1.69252e-12 0 6.09434e-29
928 7 0.001 0.0074999 0 -0.0302852 -2.7719e-25 0 -3.72106e-12 0 2.91582e-28
929 7 0.001 0.0074999 0 -0.0296477 -2.7719e-25 0 3.07357e-12 0 2.21457e-28
930 7 0.001 0.0074999 0 -0.0290101 -2.7719e-25 0 -1.69252e-12 0 6.09434e-29
1078 8 0.001 0.0125001 0 -0.0302852 2.7719e-25 0 -3.72106e-12 0 2.91582e-28
1079 8 0.001 0.0125001 0 -0.0296477 2.7719e-25 0 3.07357e-12 0 2.21457e-28
1080 8 0.001 0.0125001 0 -0.0290101 2.7719e-25 0 -1.69252e-12 0 6.09434e-29
1228 9 0.001 0.0174999 0 -0.0302852 -2.7719e-25 0 -3.72106e-12 0 2.91582e-28
1229 9 0.001 0.0174999 0 -0.0296477 -2.7719e-25 0 3.07357e-12 0 2.21457e-28
1230 9 0.001 0.0174999 0 -0.0290101 -2.7719e-25 0 -1.69252e-12 0 6.09434e-29
1378 10 0.001 0.0224999 0 -0.0302852 -2.7719e-25 0 -3.72106e-12 0 2.91582e-28
1379 10 0.001 0.0224999 0 -0.0296477 -2.7719e-25 0 3.07357e-12 0 2.21457e-28
1380 10 0.001 0.0224999 0 -0.0290101 -2.7719e-25 0 -1.69252e-12 0 6.09434e-29
31 1 0.001 -0.0224999 0 -0.0283725 2.7719e-25 0 -1.8198e-12 0 2.86832e-28
32 1 0.001 -0.0224999 0 -0.0277349 2.7719e-25 0 4.49393e-12 0 4.2559e-28
181 2 0.001 -0.0174999 0 -0.0283725 2.7719e-25 0 -1.8198e-12 0 2.86832e-28
182 2 0.001 -0.0174999 0 -0.0277349 2.7719e-25 0 4.49393e-12 0 4.2559e-28
331 3 0.001 -0.0125001 0 -0.0283725 -2.7719e-25 0 -1.8198e-12 0 2.86832e-28
332 3 0.001 -0.0125001 0 -0.0277349 -2.7719e-25 0 4.49393e-12 0 4.2559e-28
481 4 0.001 -0.0075001 0 -0.0283725 -2.7719e-25 0 -1.8198e-12 0 2.86832e-28
482 4 0.001 -0.0075001 0 -0.0277349 -2.7719e-25 0 4.49393e-12 0 4.2559e-28
631 5 0.001 -0.0025001 0 -0.0283725 -2.7719e-25 0 -1.8198e-12 0 2.86832e-28
632 5 0.001 -0.0025001 0 -0.0277349 -2.7719e-25 0 4.49393e-12 0 4.2559e-28
781 6 0.001 0.0025001 0 -0.0283725 2.7719e-25 0 -1.8198e-12 0 2.86832e-28
782 6 0.001 0.0025001 0 -0.0277349 2.7719e-25 0 4.49393e-12 0 4.2559e-28
931 7 0.001 0.0074999 0 -0.0283725 -2.7719e-25 0 -1.8198e-12 0 2.86832e-28
932 7 0.001 0.0074999 0 -0.0277349 -2.7719e-25 0 4.49393e-12 0 4.2559e-28
1081 8 0.001 0.0125001 0 -0.0283725 2.7719e-25 0 -1.8198e-12 0 2.86832e-28
1082 8 0.001 0.0125001 0 -0.0277349 2.7719e-25 0 4.49393e-12 0 4.2559e-28
1231 9 0.001 0.0174999 0 -0.0283725 -2.7719e-25 0 -1.8198e-12 0 2.86832e-28
1232 9 0.001 0.0174999 0 -0.0277349 -2.7719e-25 0 4.49393e-12 0 4.2559e-28
1381 10 0.001 0.0224999 0 -0.0283725 -2.7719e-25 0 -1.8198e-12 0 2.86832e-28
1382 10 0.001 0.0224999 0 -0.0277349 -2.7719e-25 0 4.49393e-12 0 4.2559e-28
33 1 0.001 -0.0224999 0 -0.0270973 2.7719e-25 0 -9.61241e-13 0 2.01419e-28
34 1 0.001 -0.0224999 0 -0.0264597 2.7719e-25 0 -3.97201e-12 0 4.0753e-28
35 1 0.001 -0.0224999 0 -0.0258221 2.7719e-25 0 3.53285e-12 0 3.79056e-28
183 2 0.001 -0.0174999 0 -0.0270973 2.7719e-25 0 -9.61241e-13 0 2.01419e-28
184 2 0.001 -0.0174999 0 -0.0264597 2.7719e-25 0 -3.97201e-12 0 4.0753e-28
185 2 0.001 -0.0174999 0 -0.0258221 2.7719e-25 0 3.53285e-12 0 3.79056e-28
333 3 0.001 -0.0125001 0 -0.0270973 -2.7719e-25 0 -9.61241e-13 0 2.01419e-28
334 3 0.001 -0.0125001 0 -0.0264597 -2.7719e-25 0 -3.97201e-12 0 4.0753e-28
335 3 0.001 -0.0125001 0 -0.0258221 -2.7719e-25 0 3.53285e-12 0 3.79056e-28
483 4 0.001 -0.0075001 0 -0.0270973 -2.7719e-25 0 -9.61241e-13 0 2.01419e-28
484 4 0.001 -0.0075001 0 -0.0264597 -2.7719e-25 0 -3.97201e-12 0 4.0753e-28
485 4 0.001 -0.0075001 0 -0.0258221 -2.7719e-25 0 3.53285e-12 0 3.79056e-28
633 5 0.001 -0.0025001 0 -0.0270973 -2.7719e-25 0 -9.61241e-13 0 2.01419e-28
634 5 0.001 -0.0025001 0 -0.0264597 -2.7719e-25 0 -3.97201e-12 0 4.0753e-28
635 5 0.001 -0.0025001 0 -0.0258221 -2.7719e-25 0 3.53285e-12 0 3.79056e-28
783 6 0.001 0.0025001 0 -0.0270973 2.7719e-25 0 -9.61241e-13 0 2.01419e-28
784 6 0.001 0.0025001 0 -0.0264597 2.7719e-25 0 -3.97201e-12 0 4.0753e-28
785 6 0.001 0.0025001 0 -0.0258221 2.7719e-25 0 3.53285e-12 0 3.79056e-28
933 7 0.001 0.0074999 0 -0.0270973 -2.7719e-25 0 -9.61241e-13 0 2.01419e-28
934 7 0.001 0.0074999 0 -0.0264597 -2.7719e-25 0 -3.97201e-12 0 4.0753e-28
935 7 0.001 0.0074999 0 -0.0258221 -2.7719e-25 0 3.53285e-12 0 3.79056e-28
1083 8 0.001 0.0125001 0 -0.0270973 2.7719e-25 0 -9.61241e-13 0 2.01419e-28
1084 8 0.001 0.0125001 0 -0.0264597 2.7719e-25 0 -3.97201e-12 0 4.0753e-28
1085 8 0.001 0.0125001 0 -0.0258221 2.7719e-25 0 3.53285e-12 0 3.79056e-28
1233 9 0.001 0.0174999 0 -0.0270973 -2.7719e-25 0 -9.61241e-13 0 2.01419e-28
1234 9 0.001 0.0174999 0 -0.0264597 -2.7719e-25 0 -3.97201e-12 0 4.0753e-28
1235 9 0.001 0.0174999 0 -0.0258221 -2.7719e-25 0 3.53285e-12 0 3.79056e-28
1383 10 0.001 0.0224999 0 -0.0270973 -2.7719e-25 0 -9.61241e-13 0 2.01419e-28
1384 10 0.001 0.0224999 0 -0.0264597 -2.7719e-25 0 -3.97201e-12 0 4.0753e-28
1385 10 0.001 0.0224999 0 -0.0258221 -2.7719e-25 0 3.53285e-12 0 3.79056e-28
36 1 0.001 -0.0224999 0 -0.0251846 2.7719e-25 0 2.84166e-12 0 4.94104e-28
37 1 0.001 -0.0224999 0 -0.024547 2.7719e-25 0 -2.80107e-12 0 4.96127e-28
186 2 0.001 -0.0174999 0 -0.0251846 2.7719e-25 0 2.84166e-12 0 4.94104e-28
187 2 0.001 -0.0174999 0 -0.024547 2.7719e-25 0 -2.80107e-12 0 4.96127e-28
336 3 0.001 -0.0125001 0 -0.0251846 -2.7719e-25 0 2.84166e-12 0 4.94104e-28
337 3 0.001 -0.0125001 0 -0.024547 -2.7719e-25 0 -2.80107e-12 0 4.96127e-28
486 4 0.001 -0.0075001 0 -0.0251846 -2.7719e-25 0 2.84166e-12 0 4.94104e-28
487 4 0.001 -0.0075001 0 -0.024547 -2.7719e-25 0 -2.80107e-12 0 4.96127e-28
636 5 0.001 -0.0025001 0 -0.0251846 -2.7719e-25 0 2.84166e-12 0 4.94104e-28
637 5 0.001 -0.0025001 0 -0.024547 -2.7719e-25 0 -2.80107e-12 0 4.96127e-28
786 6 0.001 0.0025001 0 -0.0251846 2.7719e-25 0 2.84166e-12 0 4.94104e-28
787 6 0.001 0.0025001 0 -0.024547 2.7719e-25 0 -2.80107e-12 0 4.96127e-28
936 7 0.001 0.0074999 0 -0.0251846 -2.7719e-25 0 2.84166e-12 0 4.94104e-28
937 7 0.001 0.0074999 0 -0.024547 -2.7719e-25 0 -2.80107e-12 0 4.96127e-28
1086 8 0.001 0.0125001 0 -0.0251846 2.7719e-25 0 2.84166e-12 0 4.94104e-28
1087 8 0.001 0.0125001 0 -0.024547 2.7719e-25 0 -2.80107e-12 0 4.96127e-28
1236 9 0.001 0.0174999 0 -0.0251846 -2.7719e-25 0 2.84166e-12 0 4.94104e-28
1237 9 0.001 0.0174999 0 -0.024547 -2.7719e-25 0 -2.80107e-12 0 4.96127e-28
1386 10 0.001 0.0224999 0 -0.0251846 -2.7719e-25 0 2.84166e-12 0 4.94104e-28
1387 10 0.001 0.0224999 0 -0.024547 -2.7719e-25 0 -2.80107e-12 0 4.96127e-28
38 1 0.001 -0.0224999 0 -0.0239094 2.7719e-25 0 -3.76052e-12 0 4.28903e-28
39 1 0.001 -0.0224999 0 -0.0232718 2.7719e-25 0 6.10231e-12 0 7.73603e-28
188 2 0.001 -0.0174999 0 -0.0239094 2.7719e-25 0 -3.76052e-12 0 4.28903e-28
189 2 0.001 -0.0174999 0 -0.0232718 2.7719e-25 0 6.10231e-12 0 7.73603e-28
338 3 0.001 -0.0125001 0 -0.0239094 -2.7719e-25 0 -3.76052e-12 0 4.28903e-28
339 3 0.001 -0.0125001 0 -0.0232718 -2.7719e-25 0 6.10231e-12 0 7.73603e-28
488 4 0.001 -0.0075001 0 -0.0239094 -2.7719e-25 0 -3.76052e-12 0 4.28903e-28
489 4 0.001 -0.0075001 0 -0.0232718 -2.7719e-25 0 6.10231e-12 0 7.73603e-28
638 5 0.001 -0.0025001 0 -0.0239094 -2.7719e-25 0 -3.76052e-12 0 4.28903e-28
639 5 0.001 -0.0025001 0 -0.0232718 -2.7719e-25 0 6.10231e-12 0 7.73603e-28
788 6 0.001 0.0025001 0 -0.0239094 2.7719e-25 0 -3.76052e-12 0 4.28903e-28
789 6 0.001 0.0025001 0 -0.0232718 2.7719e-25 0 6.10231e-12 0 7.73603e-28
938 7 0.001 0.0074999 0 -0.0239094 -2.7719e-25 0 -3.76052e-12 0 4.28903e-28
939 7 0.001 0.0074999 0 -0.0232718 -2.7719e-25 0 6.10231e-12 0 7.73603e-28
1088 8 0.001 0.0125001 0 -0.0239094 2.7719e-25 0 -3.76052e-12 0 4.28903e-28
1089 8 0.001 0.0125001 0 -0.0232718 2.7719e-25 0 6.10231e-12 0 7.73603e-28
1238 9 0.001 0.0174999 0 -0.0239094 -2.7719e-25 0 -3.76052e-12 0 4.28903e-28
1239 9 0.001 0.0174999 0 -0.0232718 -2.7719e-25 0 6.10231e-12 0 7.73603e-28
1388 10 0.001 0.0224999 0 -0.0239094 -2.7719e-25 0 -3.76052e-12 0 4.28903e-28
1389 10 0.001 0.0224999 0 -0.0232718 -2.7719e-25 0 6.10231e-12 0 7.73603e-28
40 1 0.001 -0.0224999 0 -0.0226342 2.7719e-25 0 -6.91647e-12 0 1.01477e-27
41 1 0.001 -0.0224999 0 -0.0219966 2.7719e-25 0 6.01766e-12 0 8.28653e-28
42 1 0.001 -0.0224999 0 -0.0213591 2.7719e-25 0 -4.95226e-12 0 5.24377e-28