ITEM: TIMESTEP
8700000
ITEM: NUMBER OF ATOMS
1500
ITEM: BOX BOUNDS ff ff ff
-2.5000000000000001e-02 2.5000000000000001e-02
-5.0000000000000001e-03 5.0000000000000001e-03
-5.0000000000000003e-02 5.0000000000000003e-02
ITEM: ATOMS id type radius x y z fx fy fz c_bendingE c_stretchingE
1 1 0.001 -0.0224999 0 -0.0475 2.7719e-25 0 6.24815e-13 0 1.62098e-29
151 2 0.001 -0.0174999 0 -0.0475 2.7719e-25 0 6.24815e-13 0 1.62098e-29
301 3 0.001 -0.0125001 0 -0.0475 -2.7719e-25 0 6.24815e-13 0 1.62098e-29
451 4 0.001 -0.00750009 0 -0.0475 -2.7719e-25 0 6.24815e-13 0 1.62098e-29
601 5 0.001 -0.00250009 0 -0.0475 -2.7719e-25 0 6.24815e-13 0 1.62098e-29
751 6 0.001 0.00250009 0 -0.0475 2.7719e-25 0 6.24815e-13 0 1.62098e-29
901 7 0.001 0.00749991 0 -0.0475 -2.7719e-25 0 6.24815e-13 0 1.62098e-29
1051 8 0.001 0.0125001 0 -0.0475 2.7719e-25 0 6.24815e-13 0 1.62098e-29
1201 9 0.001 0.0174999 0 -0.0475 -2.7719e-25 0 6.24815e-13 0 1.62098e-29
1351 10 0.001 0.0224999 0 -0.0475 -2.7719e-25 0 6.24815e-13 0 1.62098e-29
2 1 0.001 -0.0224999 0 -0.0468624 2.7719e-25 0 -8.35869e-13 0 1.80564e-29
3 1 0.001 -0.0224999 0 -0.0462248 2.7719e-25 0 4.17949e-13 0 3.62512e-30
4 1 0.001 -0.0224999 0 -0.0455872 2.7719e-25 0 -8.3627e-13 0 1.81923e-29
152 2 0.001 -0.0174999 0 -0.0468624 2.7719e-25 0 -8.35869e-13 0 1.80564e-29
153 2 0.001 -0.0174999 0 -0.0462248 2.7719e-25 0 4.17949e-13 0 3.62512e-30
154 2 0.001 -0.0174999 0 -0.0455872 2.7719e-25 0 -8.3627e-13 0 1.81923e-29
302 3 0.001 -0.0125001 0 -0.0468624 -2.7719e-25 0 -8.35869e-13 0 1.80564e-29
303 3 0.001 -0.0125001 0 -0.0462248 -2.7719e-25 0 4.17949e-13 0 3.62512e-30
304 3 0.001 -0.0125001 0 -0.0455872 -2.7719e-25 0 -8.3627e-13 0 1.81923e-29
452 4 0.001 -0.00750009 0 -0.0468624 -2.7719e-25 0 -8.35869e-13 0 1.80564e-29
453 4 0.001 -0.00750009 0 -0.0462248 -2.7719e-25 0 4.17949e-13 0 3.62512e-30
454 4 0.001 -0.00750009 0 -0.0455872 -2.7719e-25 0 -8.3627e-13 0 1.81923e-29
602 5 0.001 -0.00250009 0 -0.0468624 -2.7719e-25 0 -8.35869e-13 0 1.80564e-29
603 5 0.001 -0.00250009 0 -0.0462248 -2.7719e-25 0 4.17949e-13 0 3.62512e-30
604 5 0.001 -0.00250009 0 -0.0455872 -2.7719e-25 0 -8.3627e-13 0 1.81923e-29
752 6 0.001 0.00250009 0 -0.0468624 2.7719e-25 0 -8.35869e-13 0 1.80564e-29
753 6 0.001 0.00250009 0 -0.0462248 2.7719e-25 0 4.17949e-13 0 3.62512e-30
754 6 0.001 0.00250009 0 -0.0455872 2.7719e-25 0 -8.3627e-13 0 1.81923e-29
902 7 0.001 0.00749991 0 -0.0468624 -2.7719e-25 0 -8.35869e-13 0 1.80564e-29
903 7 0.001 0.00749991 0 -0.0462248 -2.7719e-25 0 4.17949e-13 0 3.62512e-30
904 7 0.001 0.00749991 0 -0.0455872 -2.7719e-25 0 -8.3627e-13 0 1.81923e-29
1052 8 0.001 0.0125001 0 -0.0468624 2.7719e-25 0 -8.35869e-13 0 1.80564e-29
1053 8 0.001 0.0125001 0 -0.0462248 2.7719e-25 0 4.17949e-13 0 3.62512e-30
1054 8 0.001 0.0125001 0 -0.0455872 2.7719e-25 0 -8.3627e-13 0 1.81923e-29
1202 9 0.001 0.0174999 0 -0.0468624 -2.7719e-25 0 -8.35869e-13 0 1.80564e-29
1203 9 0.001 0.0174999 0 -0.0462248 -2.7719e-25 0 4.17949e-13 0 3.62512e-30
1204 9 0.001 0.0174999 0 -0.0455872 -2.7719e-25 0 -8.3627e-13 0 1.81923e-29
1352 10 0.001 0.0224999 0 -0.0468624 -2.7719e-25 0 -8.35869e-13 0 1.80564e-29
1353 10 0.001 0.0224999 0 -0.0462248 -2.7719e-25 0 4.17949e-13 0 3.62512e-30
1354 10 0.001 0.0224999 0 -0.0455872 -2.7719e-25 0 -8.3627e-13 0 1.81923e-29
5 1 0.001 -0.0224999 0 -0.0449497 2.7719e-25 0 1.50557e-12 0 4.82419e-29
6 1 0.001 -0.0224999 0 -0.0443121 2.7719e-25 0 -5.22496e-12 0 8.16653e-28
155 2 0.001 -0.0174999 0 -0.0449497 2.7719e-25 0 1.50557e-12 0 4.82419e-29
156 2 0.001 -0.0174999 0 -0.0443121 2.7719e-25 0 -5.22496e-12 0 8.16653e-28
305 3 0.001 -0.0125001 0 -0.0449497 -2.7719e-25 0 1.50557e-12 0 4.82419e-29
306 3 0.001 -0.0125001 0 -0.0443121 -2.7719e-25 0 -5.22496e-12 0 8.16653e-28
455 4 0.001 -0.00750009 0 -0.0449497 -2.7719e-25 0 1.50557e-12 0 4.82419e-29
456 4 0.001 -0.00750009 0 -0.0443121 -2.7719e-25 0 -5.22496e-12 0 8.16653e-28
605 5 0.001 -0.00250009 0 -0.0449497 -2.7719e-25 0 1.50557e-12 0 4.82419e-29
606 5 0.001 -0.00250009 0 -0.0443121 -2.7719e-25 0 -5.22496e-12 0 8.16653e-28
755 6 0.001 0.00250009 0 -0.0449497 2.7719e-25 0 1.50557e-12 0 4.82419e-29
756 6 0.001 0.00250009 0 -0.0443121 2.7719e-25 0 -5.22496e-12 0 8.16653e-28
905 7 0.001 0.00749991 0 -0.0449497 -2.7719e-25 0 1.50557e-12 0 4.82419e-29
906 7 0.001 0.00749991 0 -0.0443121 -2.7719e-25 0 -5.22496e-12 0 8.16653e-28
1055 8 0.001 0.0125001 0 -0.0449497 2.7719e-25 0 1.50557e-12 0 4.82419e-29
1056 8 0.001 0.0125001 0 -0.0443121 2.7719e-25 0 -5.22496e-12 0 8.16653e-28
1205 9 0.001 0.0174999 0 -0.0449497 -2.7719e-25 0 1.50557e-12 0 4.82419e-29
1206 9 0.001 0.0174999 0 -0.0443121 -2.7719e-25 0 -5.22496e-12 0 8.16653e-28
1355 10 0.001 0.0224999 0 -0.0449497 -2.7719e-25 0 1.50557e-12 0 4.82419e-29
1356 10 0.001 0.0224999 0 -0.0443121 -2.7719e-25 0 -5.22496e-12 0 8.16653e-28
7 1 0.001 -0.0224999 0 -0.0436745 2.7719e-25 0 8.60922e-12 0 1.53838e-27
8 1 0.001 -0.0224999 0 -0.0430369 2.7719e-25 0 -4.59713e-12 0 7.5825e-28
157 2 0.001 -0.0174999 0 -0.0436745 2.7719e-25 0 8.60922e-12 0 1.53838e-27
158 2 0.001 -0.0174999 0 -0.0430369 2.7719e-25 0 -4.59713e-12 0 7.5825e-28
307 3 0.001 -0.0125001 0 -0.0436745 -2.7719e-25 0 8.60922e-12 0 1.53838e-27
308 3 0.001 -0.0125001 0 -0.0430369 -2.7719e-25 0 -4.59713e-12 0 7.5825e-28
457 4 0.001 -0.00750009 0 -0.0436745 -2.7719e-25 0 8.60922e-12 0 1.53838e-27
458 4 0.001 -0.00750009 0 -0.0430369 -2.7719e-25 0 -4.59713e-12 0 7.5825e-28
607 5 0.001 -0.00250009 0 -0.0436745 -2.7719e-25 0 8.60922e-12 0 1.53838e-27
608 5 0.001 -0.00250009 0 -0.0430369 -2.7719e-25 0 -4.59713e-12 0 7.5825e-28
757 6 0.001 0.00250009 0 -0.0436745 2.7719e-25 0 8.60922e-12 0 1.53838e-27
758 6 0.001 0.00250009 0 -0.0430369 2.7719e-25 0 -4.59713e-12 0 7.5825e-28
907 7 0.001 0.00749991 0 -0.0436745 -2.7719e-25 0 8.60922e-12 0 1.53838e-27
908 7 0.001 0.00749991 0 -0.0430369 -2.7719e-25 0 -4.59713e-12 0 7.5825e-28
1057 8 0.001 0.0125001 0 -0.0436745 2.7719e-25 0 8.60922e-12 0 1.53838e-27
1058 8 0.001 0.0125001 0 -0.0430369 2.7719e-25 0 -4.59713e-12 0 7.5825e-28
1207 9 0.001 0.0174999 0 -0.0436745 -2.7719e-25 0 8.60922e-12 0 1.53838e-27
1208 9 0.001 0.0174999 0 -0.0430369 -2.7719e-25 0 -4.59713e-12 0 7.5825e-28
1357 10 0.001 0.0224999 0 -0.0436745 -2.7719e-25 0 8.60922e-12 0 1.53838e-27
1358 10 0.001 0.0224999 0 -0.0430369 -2.7719e-25 0 -4.59713e-12 0 7.5825e-28
9 1 0.001 -0.0224999 0 -0.0423993 2.7719e-25 0 -2.13075e-12 0 2.57454e-28
10 1 0.001 -0.0224999 0 -0.0417617 2.7719e-25 0 4.88937e-12 0 4.96243e-28
11 1 0.001 -0.0224999 0 -0.0411242 2.7719e-25 0 -2.46518e-12 0 2.43562e-28
159 2 0.001 -0.0174999 0 -0.0423993 2.7719e-25 0 -2.13075e-12 0 2.57454e-28
160 2 0.001 -0.0174999 0 -0.0417617 2.7719e-25 0 4.88937e-12 0 4.96243e-28
161 2 0.001 -0.0174999 0 -0.0411242 2.7719e-25 0 -2.46518e-12 0 2.43562e-28
309 3 0.001 -0.0125001 0 -0.0423993 -2.7719e-25 0 -2.13075e-12 0 2.57454e-28
310 3 0.001 -0.0125001 0 -0.0417617 -2.7719e-25 0 4.88937e-12 0 4.96243e-28
311 3 0.001 -0.0125001 0 -0.0411242 -2.7719e-25 0 -2.46518e-12 0 2.43562e-28
459 4 0.001 -0.00750009 0 -0.0423993 -2.7719e-25 0 -2.13075e-12 0 2.57454e-28
460 4 0.001 -0.00750009 0 -0.0417617 -2.7719e-25 0 4.88937e-12 0 4.96243e-28
461 4 0.001 -0.00750009 0 -0.0411242 -2.7719e-25 0 -2.46518e-12 0 2.43562e-28
609 5 0.001 -0.00250009 0 -0.0423993 -2.7719e-25 0 -2.13075e-12 0 2.57454e-28
610 5 0.001 -0.00250009 0 -0.0417617 -2.7719e-25 0 4.88937e-12 0 4.96243e-28
611 5 0.001 -0.00250009 0 -0.0411242 -2.7719e-25 0 -2.46518e-12 0 2.43562e-28
759 6 0.001 0.00250009 0 -0.0423993 2.7719e-25 0 -2.13075e-12 0 2.57454e-28
760 6 0.001 0.00250009 0 -0.0417617 2.7719e-25 0 4.88937e-12 0 4.96243e-28
761 6 0.001 0.00250009 0 -0.0411242 2.7719e-25 0 -2.46518e-12 0 2.43562e-28
909 7 0.001 0.00749991 0 -0.0423993 -2.7719e-25 0 -2.13075e-12 0 2.57454e-28
910 7 0.001 0.00749991 0 -0.0417617 -2.7719e-25 0 4.88937e-12 0 4.96243e-28
911 7 0.001 0.00749991 0 -0.0411242 -2.7719e-25 0 -2.46518e-12 0 2.43562e-28
1059 8 0.001 0.0125001 0 -0.0423993 2.7719e-25 0 -2.13075e-12 0 2.57454e-28
1060 8 0.001 0.0125001 0 -0.0417617 2.7719e-25 0 4.88937e-12 0 4.96243e-28
1061 8 0.001 0.0125001 0 -0.0411242 2.7719e-25 0 -2.46518e-12 0 2.43562e-28
1209 9 0.001 0.0174999 0 -0.0423993 -2.7719e-25 0 -2.13075e-12 0 2.57454e-28
1210 9 0.001 0.0174999 0 -0.0417617 -2.7719e-25 0 4.88937e-12 0 4.96243e-28
1211 9 0.001 0.0174999 0 -0.0411242 -2.7719e-25 0 -2.46518e-12 0 2.43562e-28
1359 10 0.001 0.0224999 0 -0.0423993 -2.7719e-25 0 -2.13075e-12 0 2.57454e-28
1360 10 0.001 0.0224999 0 -0.0417617 -2.7719e-25 0 4.88937e-12 0 4.96243e-28
1361 10 0.001 0.0224999 0 -0.0411242 -2.7719e-25 0 -2.46518e-12 0 2.43562e-28
12 1 0.001 -0.0224999 0 -0.0404866 2.7719e-25 0 1.83785e-12 0 1.33833e-28
13 1 0.001 -0.0224999 0 -0.039849 2.7719e-25 0 -3.88754e-12 0 3.15333e-28
162 2 0.001 -0.0174999 0 -0.0404866 2.7719e-25 0 1.83785e-12 0 1.33833e-28
163 2 0.001 -0.0174999 0 -0.039849 2.7719e-25 0 -3.88754e-12 0 3.15333e-28
312 3 0.001 -0.0125001 0 -0.0404866 -2.7719e-25 0 1.83785e-12 0 1.33833e-28
313 3 0.001 -0.0125001 0 -0.039849 -2.7719e-25 0 -3.88754e-12 0 3.15333e-28
462 4 0.001 -0.00750009 0 -0.0404866 -2.7719e-25 0 1.83785e-12 0 1.33833e-28
463 4 0.001 -0.00750009 0 -0.039849 -2.7719e-25 0 -3.88754e-12 0 3.15333e-28
612 5 0.001 -0.00250009 0 -0.0404866 -2.7719e-25 0 1.83785e-12 0 1.33833e-28
613 5 0.001 -0.00250009 0 -0.039849 -2.7719e-25 0 -3.88754e-12 0 3.15333e-28
762 6 0.001 0.00250009 0 -0.0404866 2.7719e-25 0 1.83785e-12 0 1.33833e-28
763 6 0.001 0.00250009 0 -0.039849 2.7719e-25 0 -3.88754e-12 0 3.15333e-28
912 7 0.001 0.00749991 0 -0.0404866 -2.7719e-25 0 1.83785e-12 0 1.33833e-28
913 7 0.001 0.00749991 0 -0.039849 -2.7719e-25 0 -3.88754e-12 0 3.15333e-28
1062 8 0.001 0.0125001 0 -0.0404866 2.7719e-25 0 1.83785e-12 0 1.33833e-28
1063 8 0.001 0.0125001 0 -0.039849 2.7719e-25 0 -3.88754e-12 0 3.15333e-28
1212 9 0.001 0.0174999 0 -0.0404866 -2.7719e-25 0 1.83785e-12 0 1.33833e-28
1213 9 0.001 0.0174999 0 -0.039849 -2.7719e-25 0 -3.88754e-12 0 3.15333e-28
1362 10 0.001 0.0224999 0 -0.0404866 -2.7719e-25 0 1.83785e-12 0 1.33833e-28
1363 10 0.001 0.0224999 0 -0.039849 -2.7719e-25 0 -3.88754e-12 0 3.15333e-28
14 1 0.001 -0.0224999 0 -0.0392114 2.7719e-25 0 5.02926e-13 0 2.86523e-28
15 1 0.001 -0.0224999 0 -0.0385738 2.7719e-25 0 2.13175e-12 0 1.17106e-28
16 1 0.001 -0.0224999 0 -0.0379362 2.7719e-25 0 -1.67165e-12 0 6.51969e-29
164 2 0.001 -0.0174999 0 -0.0392114 2.7719e-25 0 5.02926e-13 0 2.86523e-28
165 2 0.001 -0.0174999 0 -0.0385738 2.7719e-25 0 2.13175e-12 0 1.17106e-28
166 2 0.001 -0.0174999 0 -0.0379362 2.7719e-25 0 -1.67165e-12 0 6.51969e-29
314 3 0.001 -0.0125001 0 -0.0392114 -2.7719e-25 0 5.02926e-13 0 2.86523e-28
315 3 0.001 -0.0125001 0 -0.0385738 -2.7719e-25 0 2.13175e-12 0 1.17106e-28
316 3 0.001 -0.0125001 0 -0.0379362 -2.7719e-25 0 -1.67165e-12 0 6.51969e-29
464 4 0.001 -0.00750009 0 -0.0392114 -2.7719e-25 0 5.02926e-13 0 2.86523e-28
465 4 0.001 -0.00750009 0 -0.0385738 -2.7719e-25 0 2.13175e-12 0 1.17106e-28
466 4 0.001 -0.00750009 0 -0.0379362 -2.7719e-25 0 -1.67165e-12 0 6.51969e-29
614 5 0.001 -0.00250009 0 -0.0392114 -2.7719e-25 0 5.02926e-13 0 2.86523e-28
615 5 0.001 -0.00250009 0 -0.0385738 -2.7719e-25 0 2.13175e-12 0 1.17106e-28
616 5 0.001 -0.00250009 0 -0.0379362 -2.7719e-25 0 -1.67165e-12 0 6.51969e-29
764 6 0.001 0.00250009 0 -0.0392114 2.7719e-25 0 5.02926e-13 0 2.86523e-28
765 6 0.001 0.00250009 0 -0.0385738 2.7719e-25 0 2.13175e-12 0 1.17106e-28
766 6 0.001 0.00250009 0 -0.0379362 2.7719e-25 0 -1.67165e-12 0 6.51969e-29
914 7 0.001 0.00749991 0 -0.0392114 -2.7719e-25 0 5.02926e-13 0 2.86523e-28
915 7 0.001 0.00749991 0 -0.0385738 -2.7719e-25 0 2.13175e-12 0 1.17106e-28
916 7 0.001 0.00749991 0 -0.0379362 -2.7719e-25 0 -1.67165e-12 0 6.51969e-29
1064 8 0.001 0.0125001 0 -0.0392114 2.7719e-25 0 5.02926e-13 0 2.86523e-28
1065 8 0.001 0.0125001 0 -0.0385738 2.7719e-25 0 2.13175e-12 0 1.17106e-28
1066 8 0.001 0.0125001 0 -0.0379362 2.7719e-25 0 -1.67165e-12 0 6.51969e-29
1214 9 0.001 0.0174999 0 -0.0392114 -2.7719e-25 0 5.02926e-13 0 2.86523e-28
1215 9 0.001 0.0174999 0 -0.0385738 -2.7719e-25 0 2.13175e-12 0 1.17106e-28
1216 9 0.001 0.0174999 0 -0.0379362 -2.7719e-25 0 -1.67165e-12 0 6.51969e-29
1364 10 0.001 0.0224999 0 -0.0392114 -2.7719e-25 0 5.02926e-13 0 2.86523e-28
1365 10 0.001 0.0224999 0 -0.0385738 -2.7719e-25 0 2.13175e-12 0 1.17106e-28
1366 10 0.001 0.0224999 0 -0.0379362 -2.7719e-25 0 -1.67165e-12 0 6.51969e-29
17 1 0.001 -0.0224999 0 -0.0372987 2.7719e-25 0 5.93343e-12 0 1.01101e-27
18 1 0.001 -0.0224999 0 -0.0366611 2.7719e-25 0 -7.10333e-12 0 1.17765e-27
167 2 0.001 -0.0174999 0 -0.0372987 2.7719e-25 0 5.93343e-12 0 1.01101e-27
168 2 0.001 -0.0174999 0 -0.0366611 2.7719e-25 0 -7.10333e-12 0 1.17765e-27
317 3 0.001 -0.0125001 0 -0.0372987 -2.7719e-25 0 5.93343e-12 0 1.01101e-27
318 3 0.001 -0.0125001 0 -0.0366611 -2.7719e-25 0 -7.10333e-12 0 1.17765e-27
467 4 0.001 -0.00750009 0 -0.0372987 -2.7719e-25 0 5.93343e-12 0 1.01101e-27
468 4 0.001 -0.00750009 0 -0.0366611 -2.7719e-25 0 -7.10333e-12 0 1.17765e-27
617 5 0.001 -0.00250009 0 -0.0372987 -2.7719e-25 0 5.93343e-12 0 1.01101e-27
618 5 0.001 -0.00250009 0 -0.0366611 -2.7719e-25 0 -7.10333e-12 0 1.17765e-27
767 6 0.001 0.00250009 0 -0.0372987 2.7719e-25 0 5.93343e-12 0 1.01101e-27
768 6 0.001 0.00250009 0 -0.0366611 2.7719e-25 0 -7.10333e-12 0 1.17765e-27
917 7 0.001 0.00749991 0 -0.0372987 -2.7719e-25 0 5.93343e-12 0 1.01101e-27
918 7 0.001 0.00749991 0 -0.0366611 -2.7719e-25 0 -7.10333e-12 0 1.17765e-27
1067 8 0.001 0.0125001 0 -0.0372987 2.7719e-25 0 5.93343e-12 0 1.01101e-27
1068 8 0.001 0.0125001 0 -0.0366611 2.7719e-25 0 -7.10333e-12 0 1.17765e-27
1217 9 0.001 0.0174999 0 -0.0372987 -2.7719e-25 0 5.93343e-12 0 1.01101e-27
1218 9 0.001 0.0174999 0 -0.0366611 -2.7719e-25 0 -7.10333e-12 0 1.17765e-27
1367 10 0.001 0.0224999 0 -0.0372987 -2.7719e-25 0 5.93343e-12 0 1.01101e-27
1368 10 0.001 0.0224999 0 -0.0366611 -2.7719e-25 0 -7.10333e-12 0 1.17765e-27
19 1 0.001 -0.0224999 0 -0.0360235 2.7719e-25 0 -1.3804e-12 0 7.81682e-28
20 1 0.001 -0.0224999 0 -0.0353859 2.7719e-25 0 7.68948e-12 0 1.22948e-27
169 2 0.001 -0.0174999 0 -0.0360235 2.7719e-25 0 -1.3804e-12 0 7.81682e-28
170 2 0.001 -0.0174999 0 -0.0353859 2.7719e-25 0 7.68948e-12 0 1.22948e-27
319 3 0.001 -0.0125001 0 -0.0360235 -2.7719e-25 0 -1.3804e-12 0 7.81682e-28
320 3 0.001 -0.0125001 0 -0.0353859 -2.7719e-25 0 7.68948e-12 0 1.22948e-27
469 4 0.001 -0.00750009 0 -0.0360235 -2.7719e-25 0 -1.3804e-12 0 7.81682e-28
470 4 0.001 -0.00750009 0 -0.0353859 -2.7719e-25 0 7.68948e-12 0 1.22948e-27
619 5 0.001 -0.00250009 0 -0.0360235 -2.7719e-25 0 -1.3804e-12 0 7.81682e-28
620 5 0.001 -0.00250009 0 -0.0353859 -2.7719e-25 0 7.68948e-12 0 1.22948e-27
769 6 0.001 0.00250009 0 -0.0360235 2.7719e-25 0 -1.3804e-12 0 7.81682e-28
770 6 0.001 0.00250009 0 -0.0353859 2.7719e-25 0 7.68948e-12 0 1.22948e-27
919 7 0.001 0.00749991 0 -0.0360235 -2.7719e-25 0 -1.3804e-12 0 7.81682e-28
920 7 0.001 0.00749991 0 -0.0353859 -2.7719e-25 0 7.68948e-12 0 1.22948e-27
1069 8 0.001 0.0125001 0 -0.0360235 2.7719e-25 0 -1.3804e-12 0 7.81682e-28
1070 8 0.001 0.0125001 0 -0.0353859 2.7719e-25 0 7.68948e-12 0 1.22948e-27
1219 9 0.001 0.0174999 0 -0.0360235 -2.7719e-25 0 -1.3804e-12 0 7.81682e-28
1220 9 0.001 0.0174999 0 -0.0353859 -2.7719e-25 0 7.68948e-12 0 1.22948e-27
1369 10 0.001 0.0224999 0 -0.0360235 -2.7719e-25 0 -1.3804e-12 0 7.81682e-28
1370 10 0.001 0.0224999 0 -0.0353859 -2.7719e-25 0 7.68948e-12 0 1.22948e-27
21 1 0.001 -0.0224999 0 -0.0347483 2.7719e-25 0 -5.39083e-12 0 7.46644e-28
22 1 0.001 -0.0224999 0 -0.0341107 2.7719e-25 0 1.12792e-12 0 8.18234e-29
23 1 0.001 -0.0224999 0 -0.0334732 2.7719e-25 0 2.11252e-13 0 2.73025e-30
171 2 0.001 -0.0174999 0 -0.0347483 2.7719e-25 0 -5.39083e-12 0 7.46644e-28
172 2 0.001 -0.0174999 0 -0.0341107 2.7719e-25 0 1.12792e-12 0 8.18234e-29
173 2 0.001 -0.0174999 0 -0.0334732 2.7719e-25 0 2.11252e-13 0 2.73025e-30
321 3 0.001 -0.0125001 0 -0.0347483 -2.7719e-25 0 -5.39083e-12 0 7.46644e-28
322 3 0.001 -0.0125001 0 -0.0341107 -2.7719e-25 0 1.12792e-12 0 8.18234e-29
323 3 0.001 -0.0125001 0 -0.0334732 -2.7719e-25 0 2.11252e-13 0 2.73025e-30
471 4 0.001 -0.00750009 0 -0.0347483 -2.7719e-25 0 -5.39083e-12 0 7.46644e-28
472 4 0.001 -0.00750009 0 -0.0341107 -2.7719e-25 0 1.12792e-12 0 8.18234e-29
473 4 0.001 -0.00750009 0 -0.0334732 -2.7719e-25 0 2.11252e-13 0 2.73025e-30
621 5 0.001 -0.00250009 0 -0.0347483 -2.7719e-25 0 -5.39083e-12 0 7.46644e-28
622 5 0.001 -0.00250009 0 -0.0341107 -2.7719e-25 0 1.12792e-12 0 8.18234e-29
623 5 0.001 -0.00250009 0 -0.0334732 -2.7719e-25 0 2.11252e-13 0 2.73025e-30
771 6 0.001 0.00250009 0 -0.0347483 2.7719e-25 0 -5.39083e-12 0 7.46644e-28
772 6 0.001 0.00250009 0 -0.0341107 2.7719e-25 0 1.12792e-12 0 8.18234e-29
773 6 0.001 0.00250009 0 -0.0334732 2.7719e-25 0 2.11252e-13 0 2.73025e-30
921 7 0.001 0.00749991 0 -0.0347483 -2.7719e-25 0 -5.39083e-12 0 7.46644e-28
922 7 0.001 0.00749991 0 -0.0341107 -2.7719e-25 0 1.12792e-12 0 8.18234e-29
923 7 0.001 0.00749991 0 -0.0334732 -2.7719e-25 0 2.11252e-13 0 2.73025e-30
1071 8 0.001 0.0125001 0 -0.0347483 2.7719e-25 0 -5.39083e-12 0 7.46644e-28
1072 8 0.001 0.0125001 0 -0.0341107 2.7719e-25 0 1.12792e-12 0 8.18234e-29
1073 8 0.001 0.0125001 0 -0.0334732 2.7719e-25 0 2.11252e-13 0 2.73025e-30
1221 9 0.001 0.0174999 0 -0.0347483 -2.7719e-25 0 -5.39083e-12 0 7.46644e-28
1222 9 0.001 0.0174999 0 -0.0341107 -2.7719e-25 0 1.12792e-12 0 8.18234e-29
1223 9 0.001 0.0174999 0 -0.0334732 -2.7719e-25 0 2.11252e-13 0 2.73025e-30
1371 10 0.001 0.0224999 0 -0.0347483 -2.7719e-25 0 -5.39083e-12 0 7.46644e-28
1372 10 0.001 0.0224999 0 -0.0341107 -2.7719e-25 0 1.12792e-12 0 8.18234e-29
1373 10 0.001 0.0224999 0 -0.0334732 -2.7719e-25 0 2.11252e-13 0 2.73025e-30
24 1 0.001 -0.0224999 0 -0.0328356 2.7719e-25 0 1.3354e-12 0 6.95376e-29
25 1 0.001 -0.0224999 0 -0.032198 2.7719e-25 0 -3.30146e-12 0 2.36815e-28
174 2 0.001 -0.0174999 0 -0.0328356 2.7719e-25 0 1.3354e-12 0 6.95376e-29
175 2 0.001 -0.0174999 0 -0.032198 2.7719e-25 0 -3.30146e-12 0 2.36815e-28
324 3 0.001 -0.0125001 0 -0.0328356 -2.7719e-25 0 1.3354e-12 0 6.95376e-29
325 3 0.001 -0.0125001 0 -0.032198 -2.7719e-25 0 -3.30146e-12 0 2.36815e-28
474 4 0.001 -0.00750009 0 -0.0328356 -2.7719e-25 0 1.3354e-12 0 6.95376e-29
475 4 0.001 -0.00750009 0 -0.032198 -2.7719e-25 0 -3.30146e-12 0 2.36815e-28
624 5 0.001 -0.00250009 0 -0.0328356 -2.7719e-25 0 1.3354e-12 0 6.95376e-29
625 5 0.001 -0.00250009 0 -0.032198 -2.7719e-25 0 -3.30146e-12 0 2.36815e-28
774 6 0.001 0.00250009 0 -0.0328356 2.7719e-25 0 1.3354e-12 0 6.95376e-29
775 6 0.001 0.00250009 0 -0.032198 2.7719e-25 0 -3.30146e-12 0 2.36815e-28
924 7 0.001 0.00749991 0 -0.0328356 -2.7719e-25 0 1.3354e-12 0 6.95376e-29
925 7 0.001 0.00749991 0 -0.032198 -2.7719e-25 0 -3.30146e-12 0 2.36815e-28
1074 8 0.001 0.0125001 0 -0.0328356 2.7719e-25 0 1.3354e-12 0 6.95376e-29
1075 8 0.001 0.0125001 0 -0.032198 2.7719e-25 0 -3.30146e-12 0 2.36815e-28
1224 9 0.001 0.0174999 0 -0.0328356 -2.7719e-25 0 1.3354e-12 0 6.95376e-29
1225 9 0.001 0.0174999 0 -0.032198 -2.7719e-25 0 -3.30146e-12 0 2.36815e-28
1374 10 0.001 0.0224999 0 -0.0328356 -2.7719e-25 0 1.3354e-12 0 6.95376e-29
1375 10 0.001 0.0224999 0 -0.032198 -2.7719e-25 0 -3.30146e-12 0 2.36815e-28
26 1 0.001 -0.0224999 0 -0.0315604 2.7719e-25 0 2.13273e-12 0 1.6799e-28
27 1 0.001 -0.0224999 0 -0.0309228 2.7719e-25 0 -2.23579e-12 0 1.85859e-28
176 2 0.001 -0.0174999 0 -0.0315604 2.7719e-25 0 2.13273e-12 0 1.6799e-28
177 2 0.001 -0.0174999 0 -0.0309228 2.7719e-25 0 -2.23579e-12 0 1.85859e-28
326 3 0.001 -0.0125001 0 -0.0315604 -2.7719e-25 0 2.13273e-12 0 1.6799e-28
327 3 0.001 -0.0125001 0 -0.0309228 -2.7719e-25 0 -2.23579e-12 0 1.85859e-28
476 4 0.001 -0.00750009 0 -0.0315604 -2.7719e-25 0 2.13273e-12 0 1.6799e-28
477 4 0.001 -0.00750009 0 -0.0309228 -2.7719e-25 0 -2.23579e-12 0 1.85859e-28
626 5 0.001 -0.00250009 0 -0.0315604 -2.7719e-25 0 2.13273e-12 0 1.6799e-28
627 5 0.001 -0.00250009 0 -0.0309228 -2.7719e-25 0 -2.23579e-12 0 1.85859e-28
776 6 0.001 0.00250009 0 -0.0315604 2.7719e-25 0 2.13273e-12 0 1.6799e-28
777 6 0.001 0.00250009 0 -0.0309228 2.7719e-25 0 -2.23579e-12 0 1.85859e-28
926 7 0.001 0.00749991 0 -0.0315604 -2.7719e-25 0 2.13273e-12 0 1.6799e-28
927 7 0.001 0.00749991 0 -0.0309228 -2.7719e-25 0 -2.23579e-12 0 1.85859e-28
1076 8 0.001 0.0125001 0 -0.0315604 2.7719e-25 0 2.13273e-12 0 1.6799e-28
1077 8 0.001 0.0125001 0 -0.0309228 2.7719e-25 0 -2.23579e-12 0 1.85859e-28
1226 9 0.001 0.0174999 0 -0.0315604 -2.7719e-25 0 2.13273e-12 0 1.6799e-28
1227 9 0.001 0.0174999 0 -0.0309228 -2.7719e-25 0 -2.23579e-12 0 1.85859e-28
1376 10 0.001 0.0224999 0 -0.0315604 -2.7719e-25 0 2.13273e-12 0 1.6799e-28
1377 10 0.001 0.0224999 0 -0.0309228 -2.7719e-25 0 -2.23579e-12 0 1.85859e-28
28 1 0.001 -0.0224999 0 -0.0302852 2.7719e-25 0 6.58085e-12 0 1.01451e-27
29 1 0.001 -0.0224999 0 -0.0296477 2.7719e-25 0 -4.1782e-12 0 8.32785e-28
30 1 0.001 -0.0224999 0 -0.0290101 2.7719e-25 0 -2.04818e-12 0 1.31674e-28
178 2 0.001 -0.0174999 0 -0.0302852 2.7719e-25 0 6.58085e-12 0 1.01451e-27
179 2 0.001 -0.0174999 0 -0.0296477 2.7719e-25 0 -4.1782e-12 0 8.32785e-28
180 2 0.001 -0.0174999 0 -0.0290101 2.7719e-25 0 -2.04818e-12 0 1.31674e-28
328 3 0.001 -0.0125001 0 -0.0302852 -2.7719e-25 0 6.58085e-12 0 1.01451e-27
329 3 0.001 -0.0125001 0 -0.0296477 -2.7719e-25 0 -4.1782e-12 0 8.32785e-28
330 3 0.001 -0.0125001 0 -0.0290101 -2.7719e-25 0 -2.04818e-12 0 1.31674e-28
478 4 0.001 -0.00750009 0 -0.0302852 -2.7719e-25 0 6.58085e-12 0 1.01451e-27
479 4 0.001 -0.00750009 0 -0.0296477 -2.7719e-25 0 -4.1782e-12 0 8.32785e-28
480 4 0.001 -0.00750009 0 -0.0290101 -2.7719e-25 0 -2.04818e-12 0 1.31674e-28
628 5 0.001 -0.00250009 0 -0.0302852 -2.7719e-25 0 6.58085e-12 0 1.01451e-27
629 5 0.001 -0.00250009 0 -0.0296477 -2.7719e-25 0 -4.1782e-12 0 8.32785e-28
630 5 0.001 -0.00250009 0 -0.0290101 -2.7719e-25 0 -2.04818e-12 0 1.31674e-28
778 6 0.001 0.00250009 0 -0.0302852 2.7719e-25 0 6.58085e-12 0 1.01451e-27
779 6 0.001 0.00250009 0 -0.0296477 2.7719e-25 0 -4.1782e-12 0 8.32785e-28
780 6 0.001 0.00250009 0 -0.0290101 2.7719e-25 0 -2.04818e-12 0 1.31674e-28
928 7 0.001 0.00749991 0 -0.0302852 -2.7719e-25 0 6.58085e-12 0 1.01451e-27
929 7 0.001 0.00749991 0 -0.0296477 -2.7719e-25 0 -4.1782e-12 0 8.32785e-28
930 7 0.001 0.00749991 0 -0.0290101 -2.7719e-25 0 -2.04818e-12 0 1.31674e-28
1078 8 0.001 0.0125001 0 -0.0302852 2.7719e-25 0 6.58085e-12 0 1.01451e-27
1079 8 0.001 0.0125001 0 -0.0296477 2.7719e-25 0 -4.1782e-12 0 8.32785e-28
1080 8 0.001 0.0125001 0 -0.0290101 2.7719e-25 0 -2.04818e-12 0 1.31674e-28
1228 9 0.001 0.0174999 0 -0.0302852 -2.7719e-25 0 6.58085e-12 0 1.01451e-27
1229 9 0.001 0.0174999 0 -0.0296477 -2.7719e-25 0 -4.1782e-12 0 8.32785e-28
1230 9 0.001 0.0174999 0 -0.0290101 -2.7719e-25 0 -2.04818e-12 0 1.31674e-28
1378 10 0.001 0.0224999 0 -0.0302852 -2.7719e-25 0 6.58085e-12 0 1.01451e-27
1379 10 0.001 0.0224999 0 -0.0296477 -2.7719e-25 0 -4.1782e-12 0 8.32785e-28
1380 10 0.001 0.0224999 0 -0.0290101 -2.7719e-25 0 -2.04818e-12 0 1.31674e-28
31 1 0.001 -0.0224999 0 -0.0283725 2.7719e-25 0 2.82049e-12 0 1.75136e-28
32 1 0.001 -0.0224999 0 -0.0277349 2.7719e-25 0 -3.44764e-12 0 2.82895e-28
181 2 0.001 -0.0174999 0 -0.0283725 2.7719e-25 0 2.82049e-12 0 1.75136e-28
182 2 0.001 -0.0174999 0 -0.0277349 2.7719e-25 0 -3.44764e-12 0 2.82895e-28
331 3 0.001 -0.0125001 0 -0.0283725 -2.7719e-25 0 2.82049e-12 0 1.75136e-28
332 3 0.001 -0.0125001 0 -0.0277349 -2.7719e-25 0 -3.44764e-12 0 2.82895e-28
481 4 0.001 -0.00750009 0 -0.0283725 -2.7719e-25 0 2.82049e-12 0 1.75136e-28
482 4 0.001 -0.00750009 0 -0.0277349 -2.7719e-25 0 -3.44764e-12 0 2.82895e-28
631 5 0.001 -0.00250009 0 -0.0283725 -2.7719e-25 0 2.82049e-12 0 1.75136e-28
632 5 0.001 -0.00250009 0 -0.0277349 -2.7719e-25 0 -3.44764e-12 0 2.82895e-28
781 6 0.001 0.00250009 0 -0.0283725 2.7719e-25 0 2.82049e-12 0 1.75136e-28
782 6 0.001 0.00250009 0 -0.0277349 2.7719e-25 0 -3.44764e-12 0 2.82895e-28
931 7 0.001 0.00749991 0 -0.0283725 -2.7719e-25 0 2.82049e-12 0 1.75136e-28
932 7 0.001 0.00749991 0 -0.0277349 -2.7719e-25 0 -3.44764e-12 0 2.82895e-28
1081 8 0.001 0.0125001 0 -0.0283725 2.7719e-25 0 2.82049e-12 0 1.75136e-28
1082 8 0.001 0.0125001 0 -0.0277349 2.7719e-25 0 -3.44764e-12 0 2.82895e-28
1231 9 0.001 0.0174999 0 -0.0283725 -2.7719e-25 0 2.82049e-12 0 1.75136e-28
1232 9 0.001 0.0174999 0 -0.0277349 -2.7719e-25 0 -3.44764e-12 0 2.82895e-28
1381 10 0.001 0.0224999 0 -0.0283725 -2.7719e-25 0 2.82049e-12 0 1.75136e-28
1382 10 0.001 0.0224999 0 -0.0277349 -2.7719e-25 0 -3.44764e-12 0 2.82895e-28
33 1 0.001 -0.0224999 0 -0.0270973 2.7719e-25 0 3.86503e-12 0 3.27049e-28
34 1 0.001 -0.0224999 0 -0.0264597 2.7719e-25 0 6.29333e-14 0 1.90118e-28
35 1 0.001 -0.0224999 0 -0.0258221 2.7719e-25 0 -5.00944e-13 0 1.44136e-28
183 2 0.001 -0.0174999 0 -0.0270973 2.7719e-25 0 3.86503e-12 0 3.27049e-28
184 2 0.001 -0.0174999 0 -0.0264597 2.7719e-25 0 6.29333e-14 0 1.90118e-28
185 2 0.001 -0.0174999 0 -0.0258221 2.7719e-25 0 -5.00944e-13 0 1.44136e-28
333 3 0.001 -0.0125001 0 -0.0270973 -2.7719e-25 0 3.86503e-12 0 3.27049e-28
334 3 0.001 -0.0125001 0 -0.0264597 -2.7719e-25 0 6.29333e-14 0 1.90118e-28
335 3 0.001 -0.0125001 0 -0.0258221 -2.7719e-25 0 -5.00944e-13 0 1.44136e-28
483 4 0.001 -0.00750009 0 -0.0270973 -2.7719e-25 0 3.86503e-12 0 3.27049e-28
484 4 0.001 -0.00750009 0 -0.0264597 -2.7719e-25 0 6.29333e-14 0 1.90118e-28
485 4 0.001 -0.00750009 0 -0.0258221 -2.7719e-25 0 -5.00944e-13 0 1.44136e-28
633 5 0.001 -0.00250009 0 -0.0270973 -2.7719e-25 0 3.86503e-12 0 3.27049e-28
634 5 0.001 -0.00250009 0 -0.0264597 -2.7719e-25 0 6.29333e-14 0 1.90118e-28
635 5 0.001 -0.00250009 0 -0.0258221 -2.7719e-25 0 -5.00944e-13 0 1.44136e-28
783 6 0.001 0.00250009 0 -0.0270973 2.7719e-25 0 3.86503e-12 0 3.27049e-28
784 6 0.001 0.00250009 0 -0.0264597 2.7719e-25 0 6.29333e-14 0 1.90118e-28
785 6 0.001 0.00250009 0 -0.0258221 2.7719e-25 0 -5.00944e-13 0 1.44136e-28
933 7 0.001 0.00749991 0 -0.0270973 -2.7719e-25 0 3.86503e-12 0 3.27049e-28
934 7 0.001 0.00749991 0 -0.0264597 -2.7719e-25 0 6.29333e-14 0 1.90118e-28
935 7 0.001 0.00749991 0 -0.0258221 -2.7719e-25 0 -5.00944e-13 0 1.44136e-28
1083 8 0.001 0.0125001 0 -0.0270973 2.7719e-25 0 3.86503e-12 0 3.27049e-28
1084 8 0.001 0.0125001 0 -0.0264597 2.7719e-25 0 6.29333e-14 0 1.90118e-28
1085 8 0.001 0.0125001 0 -0.0258221 2.7719e-25 0 -5.00944e-13 0 1.44136e-28
1233 9 0.001 0.0174999 0 -0.0270973 -2.7719e-25 0 3.86503e-12 0 3.27049e-28
1234 9 0.001 0.0174999 0 -0.0264597 -2.7719e-25 0 6.29333e-14 0 1.90118e-28
1235 9 0.001 0.0174999 0 -0.0258221 -2.7719e-25 0 -5.00944e-13 0 1.44136e-28
1383 10 0.001 0.0224999 0 -0.0270973 -2.7719e-25 0 3.86503e-12 0 3.27049e-28
1384 10 0.001 0.0224999 0 -0.0264597 -2.7719e-25 0 6.29333e-14 0 1.90118e-28
1385 10 0.001 0.0224999 0 -0.0258221 -2.7719e-25 0 -5.00944e-13 0 1.44136e-28
36 1 0.001 -0.0224999 0 -0.0251846 2.7719e-25 0 -4.57666e-12 0 5.63355e-28
37 1 0.001 -0.0224999 0 -0.024547 2.7719e-25 0 4.07537e-12 0 5.30378e-28
186 2 0.001 -0.0174999 0 -0.0251846 2.7719e-25 0 -4.57666e-12 0 5.63355e-28
187 2 0.001 -0.0174999 0 -0.024547 2.7719e-25 0 4.07537e-12 0 5.30378e-28
336 3 0.001 -0.0125001 0 -0.0251846 -2.7719e-25 0 -4.57666e-12 0 5.63355e-28
337 3 0.001 -0.0125001 0 -0.024547 -2.7719e-25 0 4.07537e-12 0 5.30378e-28
486 4 0.001 -0.00750009 0 -0.0251846 -2.7719e-25 0 -4.57666e-12 0 5.63355e-28
487 4 0.001 -0.00750009 0 -0.024547 -2.7719e-25 0 4.07537e-12 0 5.30378e-28
636 5 0.001 -0.00250009 0 -0.0251846 -2.7719e-25 0 -4.57666e-12 0 5.63355e-28
637 5 0.001 -0.00250009 0 -0.024547 -2.7719e-25 0 4.07537e-12 0 5.30378e-28
786 6 0.001 0.00250009 0 -0.0251846 2.7719e-25 0 -4.57666e-12 0 5.63355e-28
787 6 0.001 0.00250009 0 -0.024547 2.7719e-25 0 4.07537e-12 0 5.30378e-28
936 7 0.001 0.00749991 0 -0.0251846 -2.7719e-25 0 -4.57666e-12 0 5.63355e-28
937 7 0.001 0.00749991 0 -0.024547 -2.7719e-25 0 4.07537e-12 0 5.30378e-28
1086 8 0.001 0.0125001 0 -0.0251846 2.7719e-25 0 -4.57666e-12 0 5.63355e-28
1087 8 0.001 0.0125001 0 -0.024547 2.7719e-25 0 4.07537e-12 0 5.30378e-28
1236 9 0.001 0.0174999 0 -0.0251846 -2.7719e-25 0 -4.57666e-12 0 5.63355e-28
1237 9 0.001 0.0174999 0 -0.024547 -2.7719e-25 0 4.07537e-12 0 5.30378e-28
1386 10 0.001 0.0224999 0 -0.0251846 -2.7719e-25 0 -4.57666e-12 0 5.63355e-28
1387 10 0.001 0.0224999 0 -0.024547 -2.7719e-25 0 4.07537e-12 0 5.30378e-28
38 1 0.001 -0.0224999 0 -0.0239094 2.7719e-25 0 1.45473e-13 0 3.17887e-29
39 1 0.001 -0.0224999 0 -0.0232718 2.7719e-25 0 -1.69113e-12 0 6.15461e-29
188 2 0.001 -0.0174999 0 -0.0239094 2.7719e-25 0 1.45473e-13 0 3.17887e-29
189 2 0.001 -0.0174999 0 -0.0232718 2.7719e-25 0 -1.69113e-12 0 6.15461e-29
338 3 0.001 -0.0125001 0 -0.0239094 -2.7719e-25 0 1.45473e-13 0 3.17887e-29
339 3 0.001 -0.0125001 0 -0.0232718 -2.7719e-25 0 -1.69113e-12 0 6.15461e-29
488 4 0.001 -0.00750009 0 -0.0239094 -2.7719e-25 0 1.45473e-13 0 3.17887e-29
489 4 0.001 -0.00750009 0 -0.0232718 -2.7719e-25 0 -1.69113e-12 0 6.15461e-29
638 5 0.001 -0.00250009 0 -0.0239094 -2.7719e-25 0 1.45473e-13 0 3.17887e-29
639 5 0.001 -0.00250009 0 -0.0232718 -2.7719e-25 0 -1.69113e-12 0 6.15461e-29
788 6 0.001 0.00250009 0 -0.0239094 2.7719e-25 0 1.45473e-13 0 3.17887e-29
789 6 0.001 0.00250009 0 -0.0232718 2.7719e-25 0 -1.69113e-12 0 6.15461e-29
938 7 0.001 0.00749991 0 -0.0239094 -2.7719e-25 0 1.45473e-13 0 3.17887e-29
939 7 0.001 0.00749991 0 -0.0232718 -2.7719e-25 0 -1.69113e-12 0 6.15461e-29
1088 8 0.001 0.0125001 0 -0.0239094 2.7719e-25 0 1.45473e-13 0 3.17887e-29
1089 8 0.001 0.0125001 0 -0.0232718 2.7719e-25 0 -1.69113e-12 0 6.15461e-29
1238 9 0.001 0.0174999 0 -0.0239094 -2.7719e-25 0 1.45473e-13 0 3.17887e-29
1239 9 0.001 0.0174999 0 -0.0232718 -2.7719e-25 0 -1.69113e-12 0 6.15461e-29
1388 10 0.001 0.0224999 0 -0.0239094 -2.7719e-25 0 1.45473e-13 0 3.17887e-29
1389 10 0.001 0.0224999 0 -0.0232718 -2.7719e-25 0 -1.69113e-12 0 6.15461e-29
40 1 0.001 -0.0224999 0 -0.0226342 2.7719e-25 0 2.75733e-12 0 1.69519e-28