ITEM: TIMESTEP
5500000
ITEM: NUMBER OF ATOMS
1500
ITEM: BOX BOUNDS ff ff ff
-2.5000000000000001e-02 2.5000000000000001e-02
-5.0000000000000001e-03 5.0000000000000001e-03
-5.0000000000000003e-02 5.0000000000000003e-02
ITEM: ATOMS id type radius x y z fx fy fz c_bendingE c_stretchingE
1 1 0.001 -0.0225 0 -0.03705 -0.229871 0 -3.8e-09 1.78566e-06 1.59293e-34
2 1 0.001 -0.0225 0 -0.0364124 0.227986 0 -0.0159797 3.58238e-06 1.07257e-08
151 2 0.001 -0.0175 0 -0.03705 -0.245504 0 -3.8e-09 2.03718e-06 1.59293e-34
152 2 0.001 -0.0175 0 -0.0364124 0.245205 0 -0.0176675 4.05653e-06 1.29121e-08
301 3 0.001 -0.0125 0 -0.03705 -0.245793 0 -3.8e-09 2.04199e-06 1.59293e-34
302 3 0.001 -0.0125 0 -0.0364124 0.246909 0 -0.0184949 4.04187e-06 1.39793e-08
451 4 0.001 -0.0075 0 -0.03705 -0.223969 0 -3.8e-09 1.69503e-06 1.59293e-34
452 4 0.001 -0.0075 0 -0.0364124 0.224636 0 -0.0203666 3.35834e-06 1.7051e-08
601 5 0.001 -0.0025 0 -0.03705 -0.197745 0 -3.8e-09 1.32096e-06 1.59293e-34
602 5 0.001 -0.0025 0 -0.0364124 0.20021 0 -0.0191408 2.59364e-06 1.49033e-08
751 6 0.001 0.0025 0 -0.03705 -0.161338 0 -3.8e-09 8.79041e-07 1.59293e-34
752 6 0.001 0.0025 0 -0.0364124 0.166934 0 -0.0119592 1.69196e-06 5.64034e-09
901 7 0.001 0.0075 0 -0.03705 -0.110267 0 -3.8e-09 4.10464e-07 1.59293e-34
902 7 0.001 0.0075 0 -0.0364124 0.115172 0 -0.00914227 7.83048e-07 3.33609e-09
1051 8 0.001 0.0125 0 -0.03705 -0.0722733 0 -3.8e-09 1.76305e-07 1.59293e-34
1052 8 0.001 0.0125 0 -0.0364124 0.0764494 0 -0.00767083 3.32057e-07 2.38054e-09
1201 9 0.001 0.0175 0 -0.03705 -0.0502471 0 -3.8e-09 8.52119e-08 1.59293e-34
1202 9 0.001 0.0175 0 -0.0364124 0.054058 0 -0.00759365 1.57634e-07 2.35478e-09
1351 10 0.001 0.0225 0 -0.03705 -0.0313985 0 -3.8e-09 3.3272e-08 1.59293e-34
1352 10 0.001 0.0225 0 -0.0364124 0.0348743 0 -0.00685509 5.94686e-08 1.93075e-09
3 1 0.001 -0.0224536 0 -0.0357792 3.44122e-11 0 -3.84089e-12 5.37188e-06 2.14636e-08
4 1 0.001 -0.0223611 0 -0.0351511 1.30418e-10 0 -1.7305e-11 5.35036e-06 2.1373e-08
153 2 0.001 -0.0174505 0 -0.0357797 3.94979e-11 0 8.66948e-13 6.0358e-06 2.56242e-08
154 2 0.001 -0.0173521 0 -0.0351527 6.87661e-11 0 -6.57988e-13 5.91667e-06 2.50785e-08
303 3 0.001 -0.0124505 0 -0.0357798 3.79673e-11 0 2.08623e-12 5.97729e-06 2.75768e-08
304 3 0.001 -0.0123522 0 -0.0351529 1.00734e-10 0 -2.16595e-11 5.78573e-06 2.66687e-08
453 4 0.001 -0.00745489 0 -0.0357798 1.70241e-11 0 -4.76407e-12 4.96924e-06 3.37682e-08
454 4 0.001 -0.00736531 0 -0.0351519 5.36941e-11 0 -7.01442e-12 4.81361e-06 3.29489e-08
603 5 0.001 -0.00246016 0 -0.0357792 4.53186e-12 0 -3.76584e-12 3.8041e-06 2.93977e-08
604 5 0.001 -0.00238135 0 -0.0351497 1.22027e-11 0 -6.16836e-12 3.61914e-06 2.84908e-08
753 6 0.001 0.00253257 0 -0.0357776 -3.7721e-12 0 7.70859e-12 2.43568e-06 1.09755e-08
754 6 0.001 0.00259639 0 -0.0351451 -2.99486e-12 0 1.6776e-11 2.2292e-06 1.03628e-08
903 7 0.001 0.00752228 0 -0.0357767 -1.88338e-12 0 -8.39428e-12 1.1176e-06 6.54012e-09
904 7 0.001 0.00756575 0 -0.0351421 -1.43846e-11 0 -5.39632e-12 1.00396e-06 6.27895e-09
1053 8 0.001 0.0125146 0 -0.0357763 1.74348e-11 0 -1.8102e-12 4.67835e-07 4.70134e-09
1054 8 0.001 0.0125429 0 -0.0351405 1.97603e-11 0 4.89034e-12 4.08112e-07 4.58456e-09
1203 9 0.001 0.0175102 0 -0.0357762 -9.4479e-12 0 3.30999e-12 2.17991e-07 4.67303e-09
1204 9 0.001 0.0175297 0 -0.0351401 -2.57911e-11 0 -2.41314e-12 1.81912e-07 4.60252e-09
1353 10 0.001 0.0225063 0 -0.035776 9.10684e-12 0 -1.71942e-12 7.93361e-08 3.84363e-09
1354 10 0.001 0.0225183 0 -0.0351397 1.77143e-11 0 -1.37117e-11 6.04037e-08 3.81003e-09
5 1 0.001 -0.0222228 0 -0.0345314 2.43084e-10 0 -4.18687e-11 5.27497e-06 2.10572e-08
6 1 0.001 -0.0220399 0 -0.0339233 3.79332e-10 0 -8.07039e-11 5.14762e-06 2.05291e-08
7 1 0.001 -0.0218139 0 -0.0333299 5.43903e-10 0 -1.42806e-10 4.97149e-06 1.98098e-08
155 2 0.001 -0.0172057 0 -0.0345351 1.76979e-10 0 -2.52848e-11 5.7347e-06 2.42562e-08
156 2 0.001 -0.017013 0 -0.0339303 2.62112e-10 0 -5.27509e-11 5.49489e-06 2.31935e-08
157 2 0.001 -0.016776 0 -0.0333413 3.79491e-10 0 -8.8748e-11 5.20366e-06 2.19351e-08
305 3 0.001 -0.0122066 0 -0.0345352 1.84051e-10 0 -3.39e-11 5.53317e-06 2.54948e-08
306 3 0.001 -0.0120154 0 -0.0339299 2.91395e-10 0 -7.14086e-11 5.22665e-06 2.41057e-08
307 3 0.001 -0.011781 0 -0.03334 4.13507e-10 0 -1.25026e-10 4.87446e-06 2.25577e-08
455 4 0.001 -0.00723239 0 -0.0345317 1.01111e-10 0 -3.11242e-11 4.60124e-06 3.1847e-08
456 4 0.001 -0.00705772 0 -0.0339218 1.85638e-10 0 -4.50016e-11 4.33837e-06 3.05092e-08
457 4 0.001 -0.00684327 0 -0.0333248 2.46569e-10 0 -7.72557e-11 4.03258e-06 2.89893e-08
605 5 0.001 -0.00226483 0 -0.0345259 1.66771e-11 0 -1.64144e-11 3.39775e-06 2.74241e-08
606 5 0.001 -0.00211216 0 -0.03391 2.41638e-11 0 -2.12828e-11 3.14582e-06 2.6235e-08
607 5 0.001 -0.0019252 0 -0.0333035 5.27345e-11 0 -3.08371e-11 2.86988e-06 2.49628e-08
755 6 0.001 0.00268995 0 -0.0345163 -1.62674e-11 0 2.34995e-11 2.01688e-06 9.75119e-09
756 6 0.001 0.00281162 0 -0.0338922 -8.73373e-12 0 2.94902e-11 1.80214e-06 9.1515e-09
757 6 0.001 0.00295962 0 -0.0332738 -3.20202e-11 0 4.0355e-11 1.58828e-06 8.5732e-09
905 7 0.001 0.00762927 0 -0.0345091 -2.67888e-11 0 -8.17008e-12 8.91218e-07 6.02511e-09
906 7 0.001 0.00771162 0 -0.0338783 -2.37236e-11 0 -1.19154e-11 7.80722e-07 5.78141e-09
907 7 0.001 0.00781152 0 -0.0332499 -4.38982e-11 0 -1.58853e-11 6.7374e-07 5.55025e-09
1055 8 0.001 0.0125841 0 -0.0345055 7.65574e-11 0 1.04645e-12 3.50706e-07 4.47371e-09
1056 8 0.001 0.012637 0 -0.0338714 9.98138e-11 0 5.78269e-14 2.96179e-07 4.36967e-09
1057 8 0.001 0.0127009 0 -0.0332382 1.76336e-10 0 -4.77772e-12 2.45052e-07 4.27322e-09
1205 9 0.001 0.0175577 0 -0.0345044 -4.303e-11 0 2.16139e-12 1.48347e-07 4.5374e-09
1206 9 0.001 0.0175935 0 -0.033869 -7.5898e-11 0 4.97474e-12 1.17617e-07 4.47819e-09
1207 9 0.001 0.0176361 0 -0.0332341 -9.35545e-11 0 2.76153e-12 9.00151e-08 4.42534e-09
1355 10 0.001 0.0225352 0 -0.0345034 -1.49763e-11 0 -5.68468e-12 4.38675e-08 3.7808e-09
1356 10 0.001 0.0225563 0 -0.0338673 -2.44446e-12 0 -2.15135e-11 2.98702e-08 3.75614e-09
1357 10 0.001 0.0225807 0 -0.0332313 -4.69294e-11 0 -1.68912e-11 1.8532e-08 3.73623e-09
8 1 0.001 -0.0215467 0 -0.0327538 7.12461e-10 0 -2.14701e-10 4.75093e-06 1.89272e-08
9 1 0.001 -0.0212404 0 -0.0321975 9.00607e-10 0 -3.23187e-10 4.49125e-06 1.79139e-08
10 1 0.001 -0.0208975 0 -0.0316628 1.07379e-09 0 -4.30302e-10 4.19849e-06 1.6805e-08
158 2 0.001 -0.0164972 0 -0.0327709 5.24297e-10 0 -1.58968e-10 4.8686e-06 2.05308e-08
159 2 0.001 -0.0161793 0 -0.0322212 6.38757e-10 0 -2.28048e-10 4.49814e-06 1.90323e-08
160 2 0.001 -0.0158252 0 -0.0316939 8.06989e-10 0 -3.2659e-10 4.10119e-06 1.74899e-08
308 3 0.001 -0.011506 0 -0.0327678 5.27399e-10 0 -1.72229e-10 4.48581e-06 2.09093e-08
309 3 0.001 -0.0111933 0 -0.0322151 6.68299e-10 0 -2.52668e-10 4.07042e-06 1.92168e-08
310 3 0.001 -0.0108459 0 -0.0316834 7.79707e-10 0 -3.26127e-10 3.63821e-06 1.75316e-08
458 4 0.001 -0.00659133 0 -0.0327424 3.52309e-10 0 -1.24291e-10 3.69244e-06 2.73442e-08
459 4 0.001 -0.00630447 0 -0.0321763 4.42552e-10 0 -1.72243e-10 3.32712e-06 2.56311e-08
460 4 0.001 -0.00598543 0 -0.0316276 5.32507e-10 0 -2.31116e-10 2.94613e-06 2.39037e-08
608 5 0.001 -0.00170603 0 -0.0327078 5.51883e-11 0 -2.76167e-11 2.57684e-06 2.36465e-08
609 5 0.001 -0.00145692 0 -0.0321238 9.0163e-11 0 -5.79576e-11 2.27385e-06 2.23231e-08
758 6 0.001 0.00313211 0 -0.0326617 -3.2233e-11 0 4.61338e-11 1.37846e-06 8.02418e-09
759 6 0.001 0.00332716 0 -0.0320564 -5.14553e-11 0 6.15711e-11 1.17565e-06 7.51079e-09
908 7 0.001 0.00792765 0 -0.0326244 -4.47748e-11 0 -1.41536e-11 5.71472e-07 5.33369e-09
909 7 0.001 0.00805865 0 -0.0320018 -3.78383e-11 0 -2.32857e-11 4.75031e-07 5.13342e-09
1058 8 0.001 0.0127746 0 -0.0326061 2.36858e-10 0 -1.89171e-11 1.97807e-07 4.18506e-09
1059 8 0.001 0.0128571 0 -0.031975 3.10664e-10 0 -2.52995e-11 1.54882e-07 4.10576e-09
1208 9 0.001 0.0176847 0 -0.0325996 -1.08584e-10 0 6.81081e-12 6.57991e-08 4.37923e-09
1209 9 0.001 0.0177383 0 -0.0319655 -1.31177e-10 0 6.22322e-12 4.51949e-08 4.34019e-09
1358 10 0.001 0.0226078 0 -0.0325954 -7.35558e-11 0 -1.6811e-11 9.94969e-09 3.72119e-09
1359 10 0.001 0.0226369 0 -0.0319596 -1.39515e-10 0 -2.41014e-11 4.19645e-09 3.71113e-09
11 1 0.001 -0.0205206 0 -0.0311514 1.25933e-09 0 -5.52284e-10 3.87926e-06 1.56363e-08
12 1 0.001 -0.0201127 0 -0.0306643 1.42415e-09 0 -6.96752e-10 3.54048e-06 1.44422e-08
13 1 0.001 -0.0196764 0 -0.0302023 1.58251e-09 0 -8.37657e-10 3.18914e-06 1.3254e-08
161 2 0.001 -0.015438 0 -0.0311903 9.50497e-10 0 -4.39908e-10 3.68688e-06 1.59496e-08
162 2 0.001 -0.015021 0 -0.030711 1.09473e-09 0 -5.61879e-10 3.26424e-06 1.44517e-08
163 2 0.001 -0.0145772 0 -0.0302562 1.24775e-09 0 -7.00479e-10 2.84197e-06 1.30288e-08
311 3 0.001 -0.0104671 0 -0.0311735 9.03276e-10 0 -4.25828e-10 3.19895e-06 1.58983e-08
312 3 0.001 -0.0100601 0 -0.0306856 1.0208e-09 0 -5.11876e-10 2.76201e-06 1.43529e-08
313 3 0.001 -0.009628 0 -0.0302197 1.1119e-09 0 -5.97694e-10 2.33617e-06 1.29229e-08
461 4 0.001 -0.00563708 0 -0.0310969 6.48288e-10 0 -3.02102e-10 2.55898e-06 2.221e-08
462 4 0.001 -0.00526234 0 -0.0305844 7.30237e-10 0 -3.6785e-10 2.17486e-06 2.05913e-08
463 4 0.001 -0.0048641 0 -0.0300897 8.2425e-10 0 -4.44323e-10 1.8025e-06 1.90806e-08
610 5 0.001 -0.00118026 0 -0.0315524 1.1316e-10 0 -6.62257e-11 1.96798e-06 2.10258e-08
611 5 0.001 -0.000878554 0 -0.0309937 1.43612e-10 0 -8.25821e-11 1.66615e-06 1.97837e-08
612 5 0.001 -0.000554322 0 -0.0304476 1.9263e-10 0 -1.1784e-10 1.37487e-06 1.8621e-08
760 6 0.001 0.00354279 0 -0.031458 -6.26739e-11 0 6.37859e-11 9.82607e-07 7.03786e-09
761 6 0.001 0.00377701 0 -0.0308666 -7.79167e-11 0 7.60185e-11 8.01822e-07 6.60892e-09
762 6 0.001 0.00402782 0 -0.0302821 -9.15896e-11 0 8.20924e-11 6.35543e-07 6.2263e-09
910 7 0.001 0.00820313 0 -0.0313821 -4.221e-11 0 -3.06498e-11 3.8544e-07 4.9508e-09
911 7 0.001 0.0083597 0 -0.0307653 -2.61007e-11 0 -3.12404e-11 3.03623e-07 4.78693e-09
912 7 0.001 0.00852692 0 -0.0301514 4.24681e-12 0 -5.02835e-11 2.30406e-07 4.64261e-09
1060 8 0.001 0.0129474 0 -0.031345 3.93774e-10 0 -3.65556e-11 1.16671e-07 4.0358e-09
1061 8 0.001 0.0130445 0 -0.0307161 4.82505e-10 0 -4.41958e-11 8.35173e-08 3.97559e-09
1062 8 0.001 0.0131473 0 -0.030088 5.75803e-10 0 -6.45617e-11 5.57173e-08 3.92545e-09
1210 9 0.001 0.0177962 0 -0.0313317 -1.5467e-10 0 2.80437e-12 2.83931e-08 4.30848e-09
1211 9 0.001 0.0178573 0 -0.0306983 -1.78966e-10 0 2.5429e-12 1.55482e-08 4.28431e-09
1212 9 0.001 0.0179209 0 -0.030065 -1.89545e-10 0 5.99951e-12 6.77777e-09 4.26785e-09
1360 10 0.001 0.022667 0 -0.0313238 -1.82358e-10 0 -1.85981e-11 1.32114e-09 3.7061e-09
1361 10 0.001 0.0226976 0 -0.0306881 -2.45543e-10 0 -1.63111e-11 1.34816e-09 3.70615e-09
14 1 0.001 -0.0192148 0 -0.0297655 1.72583e-09 0 -9.82915e-10 2.83216e-06 1.2099e-08
15 1 0.001 -0.0187305 0 -0.0293538 1.85439e-09 0 -1.1316e-09 2.47619e-06 1.09998e-08
16 1 0.001 -0.0182263 0 -0.0289666 1.9603e-09 0 -1.2595e-09 2.12749e-06 9.97375e-09
17 1 0.001 -0.0177048 0 -0.0286029 2.0643e-09 0 -1.39897e-09 1.79182e-06 9.03355e-09
164 2 0.001 -0.0141098 0 -0.0298255 1.3863e-09 0 -8.53948e-10 2.42823e-06 1.17062e-08
165 2 0.001 -0.0136218 0 -0.0294182 1.51387e-09 0 -9.9534e-10 2.03051e-06 1.05016e-08
166 2 0.001 -0.0131159 0 -0.0290332 1.65099e-09 0 -1.16835e-09 1.65553e-06 9.42577e-09
167 2 0.001 -0.0125947 0 -0.0286689 1.74066e-09 0 -1.29554e-09 1.30922e-06 8.48376e-09
314 3 0.001 -0.00917387 0 -0.029775 1.21729e-09 0 -7.09443e-10 1.92943e-06 1.1627e-08
315 3 0.001 -0.00870065 0 -0.0293506 1.2889e-09 0 -7.82693e-10 1.54893e-06 1.04768e-08
316 3 0.001 -0.00821111 0 -0.028945 1.37587e-09 0 -8.80984e-10 1.20094e-06 9.47713e-09
464 4 0.001 -0.00444525 0 -0.0296123 9.04081e-10 0 -5.16741e-10 1.44992e-06 1.77032e-08
465 4 0.001 -0.00400855 0 -0.029151 9.91825e-10 0 -5.95658e-10 1.12436e-06 1.64772e-08
466 4 0.001 -0.00355667 0 -0.0287045 1.05668e-09 0 -6.62052e-10 8.32164e-07 1.54143e-08
613 5 0.001 -0.000210105 0 -0.0299138 2.27443e-10 0 -1.48236e-10 1.10021e-06 1.75569e-08
614 5 0.001 0.000151572 0 -0.0293917 2.60033e-10 0 -1.72194e-10 8.47652e-07 1.6606e-08
615 5 0.001 0.000528227 0 -0.0288801 3.29297e-10 0 -2.25474e-10 6.2203e-07 1.57789e-08
763 6 0.001 0.00429322 0 -0.0297039 -1.0344e-10 0 9.50522e-11 4.85749e-07 5.89137e-09
764 6 0.001 0.0045712 0 -0.0291316 -1.18975e-10 0 1.05885e-10 3.54152e-07 5.60476e-09
913 7 0.001 0.00870337 0 -0.02954 3.85858e-11 0 -6.28935e-11 1.66508e-07 4.51847e-09
914 7 0.001 0.0088876 0 -0.0289309 8.34612e-11 0 -8.34437e-11 1.12546e-07 4.41494e-09
1063 8 0.001 0.0132546 0 -0.0294606 6.8798e-10 0 -8.05824e-11 3.35164e-08 3.88563e-09
1064 8 0.001 0.0133654 0 -0.0288339 7.83279e-10 0 -9.15202e-11 1.71088e-08 3.85634e-09
1213 9 0.001 0.0179859 0 -0.029432 -2.27393e-10 0 8.92275e-12 2.16177e-09 4.2592e-09
1214 9 0.001 0.0180514 0 -0.028799 -2.59369e-10 0 1.2153e-11 1.74219e-09 4.25841e-09
1362 10 0.001 0.0227278 0 -0.0300523 -3.16946e-10 0 -1.75392e-11 4.27726e-09 3.71126e-09
1363 10 0.001 0.0227568 0 -0.0294165 -3.82299e-10 0 -4.00444e-12 1.00836e-08 3.72141e-09
1364 10 0.001 0.0227838 0 -0.0287806 -4.57162e-10 0 -7.49968e-12 1.87179e-08 3.73653e-09
18 1 0.001 -0.0171683 0 -0.0282614 2.13923e-09 0 -1.51452e-09 1.47442e-06 8.1873e-09
19 1 0.001 -0.0166192 0 -0.0279407 2.20891e-09 0 -1.62195e-09 1.1799e-06 7.43925e-09
20 1 0.001 -0.0160593 0 -0.0276389 2.26794e-09 0 -1.72552e-09 9.12295e-07 6.79061e-09
21 1 0.001 -0.0154905 0 -0.027354 2.30974e-09 0 -1.81209e-09 6.75044e-07 6.24024e-09
22 1 0.001 -0.0149146 0 -0.0270838 2.34641e-09 0 -1.88966e-09 4.71018e-07 5.78551e-09
168 2 0.001 -0.0120607 0 -0.0283236 1.85495e-09 0 -1.46886e-09 9.96671e-07 7.67609e-09
169 2 0.001 -0.0115161 0 -0.0279951 1.91859e-09 0 -1.56874e-09 7.22178e-07 7.00003e-09
170 2 0.001 -0.0109628 0 -0.0276811 2.00636e-09 0 -1.70404e-09 4.89278e-07 6.45078e-09
171 2 0.001 -0.0104029 0 -0.0273792 2.04693e-09 0 -1.78434e-09 3.00795e-07 6.02267e-09
172 2 0.001 -0.00983788 0 -0.0270868 2.09305e-09 0 -1.86602e-09 1.59082e-07 5.7063e-09
317 3 0.001 -0.00770784 0 -0.0285563 1.43066e-09 0 -9.56587e-10 8.90784e-07 8.62838e-09
318 3 0.001 -0.00719324 0 -0.0281827 1.48168e-09 0 -1.01969e-09 6.22928e-07 7.92735e-09
319 3 0.001 -0.00666955 0 -0.0278218 1.51537e-09 0 -1.0729e-09 4.00997e-07 7.36896e-09
320 3 0.001 -0.00613886 0 -0.0274712 1.55127e-09 0 -1.11971e-09 2.27841e-07 6.94685e-09
321 3 0.001 -0.00560311 0 -0.0271283 1.55426e-09 0 -1.135e-09 1.05665e-07 6.64626e-09
467 4 0.001 -0.00309217 0 -0.028271 1.11339e-09 0 -7.29214e-10 5.78772e-07 1.45212e-08
468 4 0.001 -0.00261748 0 -0.0278486 1.17582e-09 0 -7.89158e-10 3.68699e-07 1.38009e-08
469 4 0.001 -0.00213491 0 -0.0274351 1.21765e-09 0 -8.50163e-10 2.05541e-07 1.32542e-08
616 5 0.001 0.000917428 0 -0.0283779 3.53507e-10 0 -2.59035e-10 4.27518e-07 1.50828e-08
617 5 0.001 0.0013168 0 -0.0278838 4.21238e-10 0 -3.04927e-10 2.6759e-07 1.45222e-08
618 5 0.001 0.00172402 0 -0.027396 4.57818e-10 0 -3.53127e-10 1.4502e-07 1.40998e-08
765 6 0.001 0.0048598 0 -0.0285646 -1.32845e-10 0 1.07359e-10 2.42202e-07 5.36656e-09
766 6 0.001 0.00515706 0 -0.0280021 -1.27347e-10 0 1.17036e-10 1.51091e-07 5.17652e-09
767 6 0.001 0.00546104 0 -0.0274431 -1.48249e-10 0 1.23017e-10 8.17645e-08 5.0342e-09
915 7 0.001 0.00907817 0 -0.0283237 1.31631e-10 0 -9.72206e-11 6.903e-08 4.33232e-09
916 7 0.001 0.00927365 0 -0.0277181 1.97238e-10 0 -1.27506e-10 3.63658e-08 4.27082e-09
917 7 0.001 0.00947257 0 -0.0271135 2.48052e-10 0 -1.54416e-10 1.48543e-08 4.23055e-09
1065 8 0.001 0.0134787 0 -0.0282076 9.08946e-10 0 -1.11622e-10 6.63739e-09 3.8377e-09
1066 8 0.001 0.0135934 0 -0.0275816 1.00779e-09 0 -1.27966e-10 2.19273e-09 3.8298e-09
1215 9 0.001 0.0181166 0 -0.0281659 -2.87038e-10 0 1.11715e-11 5.52285e-09 4.26549e-09
1216 9 0.001 0.0181805 0 -0.0275327 -3.29498e-10 0 1.92509e-11 1.34694e-08 4.28039e-09
1365 10 0.001 0.0228082 0 -0.0281446 -5.26948e-10 0 -5.76365e-12 3.01065e-08 3.75652e-09
1366 10 0.001 0.0228292 0 -0.0275085 -6.25982e-10 0 -2.67634e-12 4.41522e-08 3.78125e-09
23 1 0.001 -0.014333 0 -0.0268259 2.37641e-09 0 -1.94277e-09 3.02555e-07 5.42298e-09
24 1 0.001 -0.013747 0 -0.0265779 2.40755e-09 0 -2.00286e-09 1.71493e-07 5.14903e-09
25 1 0.001 -0.013158 0 -0.0263374 2.41235e-09 0 -2.02319e-09 7.92003e-08 4.96036e-09
26 1 0.001 -0.012567 0 -0.0261015 2.42919e-09 0 -2.04974e-09 2.66137e-08 4.85443e-09
27 1 0.001 -0.0119751 0 -0.0258679 2.42909e-09 0 -2.04631e-09 1.42542e-08 4.82969e-09
28 1 0.001 -0.0113835 0 -0.0256337 2.43269e-09 0 -2.05597e-09 4.22432e-08 4.88579e-09
173 2 0.001 -0.0092694 0 -0.0268011 2.1158e-09 0 -1.89875e-09 6.5587e-08 5.48856e-09
174 2 0.001 -0.00869892 0 -0.0265194 2.13334e-09 0 -1.9323e-09 2.01215e-08 5.36344e-09
175 2 0.001 -0.00812781 0 -0.026239 2.12123e-09 0 -1.91091e-09 2.02275e-08 5.33159e-09
176 2 0.001 -0.00755742 0 -0.0259571 2.11101e-09 0 -1.88237e-09 6.16263e-08 5.39536e-09
177 2 0.001 -0.00698904 0 -0.0256712 2.07528e-09 0 -1.82045e-09 1.39385e-07 5.55711e-09
322 3 0.001 -0.00506415 0 -0.0267905 1.57489e-09 0 -1.16098e-09 3.56089e-08 6.46096e-09
323 3 0.001 -0.00452374 0 -0.0264549 1.56441e-09 0 -1.15156e-09 1.70683e-08 6.40092e-09
324 3 0.001 -0.0039836 0 -0.0261189 1.56035e-09 0 -1.13669e-09 4.70845e-08 6.46705e-09
325 3 0.001 -0.0034454 0 -0.0257798 1.53881e-09 0 -1.10869e-09 1.2066e-07 6.64795e-09
470 4 0.001 -0.00164669 0 -0.0270283 1.24975e-09 0 -8.8443e-10 9.20032e-08 1.28802e-08
471 4 0.001 -0.00115496 0 -0.0266257 1.2729e-09 0 -9.13845e-10 2.99122e-08 1.26776e-08
472 4 0.001 -0.000661817 0 -0.0262248 1.28081e-09 0 -9.34089e-10 1.99959e-08 1.26441e-08
473 4 0.001 -0.000169323 0 -0.0258231 1.29537e-09 0 -9.4699e-10 6.14349e-08 1.277e-08
619 5 0.001 0.00213682 0 -0.0269129 5.11542e-10 0 -4.0257e-10 6.18836e-08 1.38168e-08
620 5 0.001 0.00255297 0 -0.0264327 5.57661e-10 0 -4.4001e-10 1.95621e-08 1.36739e-08
621 5 0.001 0.00297026 0 -0.0259535 5.92422e-10 0 -4.81723e-10 1.87516e-08 1.36711e-08
768 6 0.001 0.00576983 0 -0.0268867 -1.41376e-10 0 1.24325e-10 3.49226e-08 4.93916e-09
769 6 0.001 0.00608151 0 -0.026332 -1.4579e-10 0 1.25945e-10 1.10317e-08 4.89104e-09
770 6 0.001 0.00639419 0 -0.0257778 -1.41497e-10 0 1.33815e-10 1.03269e-08 4.88962e-09
918 7 0.001 0.0096735 0 -0.0265097 3.04743e-10 0 -1.79562e-10 4.6918e-09 4.21159e-09
919 7 0.001 0.00987499 0 -0.025906 3.48762e-10 0 -1.99473e-10 5.97058e-09 4.21397e-09
1067 8 0.001 0.0137083 0 -0.0269556 1.12186e-09 0 -1.50786e-10 3.81323e-09 3.83267e-09
1068 8 0.001 0.0138223 0 -0.0263294 1.21738e-09 0 -1.64188e-10 1.14849e-08 3.8463e-09
1069 8 0.001 0.0139344 0 -0.0257029 1.32876e-09 0 -1.78304e-10 2.51414e-08 3.87064e-09
1217 9 0.001 0.0182422 0 -0.0268994 -3.69306e-10 0 9.50906e-12 2.55093e-08 4.30302e-09
1218 9 0.001 0.0183008 0 -0.0262657 -4.217e-10 0 2.66651e-11 4.15326e-08 4.33323e-09
1219 9 0.001 0.0183553 0 -0.0256316 -4.72852e-10 0 2.22101e-11 6.1392e-08 4.37082e-09
1367 10 0.001 0.022846 0 -0.0268723 -7.15083e-10 0 -3.63491e-12 6.07343e-08 3.81056e-09
1368 10 0.001 0.0228579 0 -0.0262359 -8.0348e-10 0 2.22288e-12 7.97097e-08 3.84423e-09
1369 10 0.001 0.0228641 0 -0.0255995 -8.91419e-10 0 5.18723e-12 1.00914e-07 3.88203e-09
29 1 0.001 -0.0107931 0 -0.0253963 2.43462e-09 0 -2.04751e-09 1.10572e-07 5.01651e-09
30 1 0.001 -0.0102051 0 -0.0251532 2.42317e-09 0 -2.03048e-09 2.19712e-07 5.22129e-09
31 1 0.001 -0.00962066 0 -0.0249017 2.42246e-09 0 -2.01618e-09 3.71321e-07 5.5227e-09
32 1 0.001 -0.00904111 0 -0.0246392 2.39775e-09 0 -1.97694e-09 5.68363e-07 5.94814e-09
33 1 0.001 -0.00846793 0 -0.0243633 2.39733e-09 0 -1.96107e-09 8.1438e-07 6.51996e-09
178 2 0.001 -0.00642395 0 -0.0253789 2.0391e-09 0 -1.72902e-09 2.49683e-07 5.80586e-09
179 2 0.001 -0.00586348 0 -0.0250779 1.97512e-09 0 -1.63534e-09 3.91168e-07 6.11469e-09
180 2 0.001 -0.00530901 0 -0.024766 1.91758e-09 0 -1.50622e-09 5.65575e-07 6.48123e-09
181 2 0.001 -0.00476205 0 -0.0244413 1.84151e-09 0 -1.38451e-09 7.76603e-07 6.94215e-09
326 3 0.001 -0.00291076 0 -0.0254352 1.52013e-09 0 -1.07418e-09 2.31744e-07 6.92873e-09
327 3 0.001 -0.00238133 0 -0.0250827 1.48828e-09 0 -1.02858e-09 3.74575e-07 7.29478e-09
328 3 0.001 -0.00185876 0 -0.0247201 1.4492e-09 0 -9.75843e-10 5.45175e-07 7.73625e-09
329 3 0.001 -0.00134475 0 -0.0243456 1.41019e-09 0 -9.20489e-10 7.42214e-07 8.2524e-09
474 4 0.001 0.000320457 0 -0.0254182 1.28776e-09 0 -9.35874e-10 1.51507e-07 1.305e-08
475 4 0.001 0.000805458 0 -0.0250075 1.28545e-09 0 -9.40306e-10 2.85618e-07 1.34934e-08
476 4 0.001 0.00128359 0 -0.024589 1.26373e-09 0 -9.18231e-10 4.57782e-07 1.40937e-08
477 4 0.001 0.00175274 0 -0.0241605 1.23657e-09 0 -8.87136e-10 6.61314e-07 1.48241e-08
622 5 0.001 0.00338649 0 -0.0254733 6.2156e-10 0 -5.17502e-10 5.94653e-08 1.38086e-08
623 5 0.001 0.00379946 0 -0.0249904 6.51918e-10 0 -5.41022e-10 1.41034e-07 1.40861e-08
624 5 0.001 0.00420694 0 -0.0245028 6.59224e-10 0 -5.5247e-10 2.62047e-07 1.45033e-08
771 6 0.001 0.00670599 0 -0.0252231 -1.36963e-10 0 1.28904e-10 3.28151e-08 4.93489e-09
772 6 0.001 0.00701501 0 -0.0246669 -1.30443e-10 0 1.21021e-10 7.8275e-08 5.02707e-09
773 6 0.001 0.00731933 0 -0.0241081 -1.2406e-10 0 1.21868e-10 1.46255e-07 5.16649e-09
920 7 0.001 0.0100756 0 -0.0253021 4.0682e-10 0 -2.18865e-10 1.8679e-08 4.23768e-09
921 7 0.001 0.0102739 0 -0.0246974 4.36335e-10 0 -2.48812e-10 4.27017e-08 4.28269e-09
922 7 0.001 0.0104684 0 -0.0240914 4.77689e-10 0 -2.57376e-10 7.78189e-08 4.34891e-09
1070 8 0.001 0.0140436 0 -0.0250759 1.40678e-09 0 -1.98642e-10 4.46643e-08 3.90557e-09
1071 8 0.001 0.0141486 0 -0.0244482 1.49484e-09 0 -2.09648e-10 6.98832e-08 3.95092e-09
1220 9 0.001 0.018405 0 -0.0249972 -5.58477e-10 0 3.13362e-11 8.49042e-08 4.41553e-09
1221 9 0.001 0.0184489 0 -0.0243623 -6.11067e-10 0 3.02165e-11 1.1185e-07 4.46706e-09
1370 10 0.001 0.022864 0 -0.0249631 -9.68134e-10 0 6.3616e-12 1.24161e-07 3.92369e-09
1371 10 0.001 0.0228568 0 -0.0243267 -1.02941e-09 0 1.40716e-12 1.49247e-07 3.96889e-09
34 1 0.001 -0.00790282 0 -0.0240713 2.36026e-09 0 -1.90794e-09 1.11202e-06 7.26104e-09
35 1 0.001 -0.00734774 0 -0.0237609 2.34057e-09 0 -1.86845e-09 1.46139e-06 8.18552e-09
36 1 0.001 -0.00680491 0 -0.0234297 2.28805e-09 0 -1.79241e-09 1.85883e-06 9.2879e-09
37 1 0.001 -0.00627687 0 -0.0230756 2.25641e-09 0 -1.76159e-09 2.29723e-06 1.05623e-08
38 1 0.001 -0.00576643 0 -0.0226968 2.17742e-09 0 -1.65315e-09 2.7673e-06 1.20044e-08
182 2 0.001 -0.0042243 0 -0.0241016 1.75258e-09 0 -1.24383e-09 1.02801e-06 7.53652e-09
183 2 0.001 -0.00369767 0 -0.0237451 1.66945e-09 0 -1.11208e-09 1.32192e-06 8.29113e-09
184 2 0.001 -0.00318431 0 -0.0233699 1.56573e-09 0 -9.74455e-10 1.6576e-06 9.21852e-09
185 2 0.001 -0.00268664 0 -0.0229742 1.4598e-09 0 -8.36358e-10 2.03091e-06 1.03102e-08
330 3 0.001 -0.000841091 0 -0.0239574 1.36995e-09 0 -8.70818e-10 9.66777e-07 8.84195e-09
331 3 0.001 -0.000349704 0 -0.0235539 1.31606e-09 0 -8.10566e-10 1.221e-06 9.5176e-09
332 3 0.001 0.000127326 0 -0.0231336 1.27941e-09 0 -7.66098e-10 1.5062e-06 1.03088e-08
333 3 0.001 0.000587723 0 -0.0226953 1.21516e-09 0 -6.97971e-10 1.82189e-06 1.12388e-08
478 4 0.001 0.00221077 0 -0.0237202 1.22399e-09 0 -8.7469e-10 8.89602e-07 1.56608e-08
479 4 0.001 0.00265549 0 -0.0232665 1.16017e-09 0 -8.26986e-10 1.13689e-06 1.65868e-08
480 4 0.001 0.00308469 0 -0.0227983 1.13377e-09 0 -7.89835e-10 1.3991e-06 1.75916e-08
625 5 0.001 0.00460666 0 -0.0240089 6.75017e-10 0 -5.73309e-10 4.2001e-07 1.50571e-08
626 5 0.001 0.00499631 0 -0.0235071 6.64382e-10 0 -5.67009e-10 6.11094e-07 1.5737e-08
627 5 0.001 0.00537352 0 -0.022996 6.67742e-10 0 -5.79276e-10 8.301e-07 1.6524e-08
774 6 0.001 0.00761705 0 -0.0235458 -1.07771e-10 0 1.11532e-10 2.36068e-07 5.35362e-09
775 6 0.001 0.00790623 0 -0.0229791 -8.39213e-11 0 1.06013e-10 3.46785e-07 5.58887e-09
923 7 0.001 0.0106577 0 -0.0234839 5.23042e-10 0 -2.81382e-10 1.23707e-07 4.43621e-09
924 7 0.001 0.0108403 0 -0.0228743 5.45515e-10 0 -2.91959e-10 1.79936e-07 4.54436e-09
1072 8 0.001 0.0142484 0 -0.0238196 1.57633e-09 0 -2.20653e-10 1.00576e-07 4.00646e-09
1073 8 0.001 0.014342 0 -0.0231901 1.63857e-09 0 -2.30849e-10 1.36472e-07 4.07192e-09
1074 8 0.001 0.0144283 0 -0.0225596 1.69514e-09 0 -2.36486e-10 1.77247e-07 4.14691e-09
1222 9 0.001 0.0184861 0 -0.0237271 -6.86168e-10 0 3.08419e-11 1.41978e-07 4.52502e-09
1223 9 0.001 0.0185157 0 -0.0230914 -7.71446e-10 0 4.4063e-11 1.75002e-07 4.58899e-09
1372 10 0.001 0.0228419 0 -0.0236904 -1.0841e-09 0 -1.39903e-11 1.75948e-07 4.01729e-09
1373 10 0.001 0.0228186 0 -0.0230544 -1.13591e-09 0 -3.10111e-12 2.04026e-07 4.0685e-09
39 1 0.001 -0.00527664 0 -0.0222918 2.12513e-09 0 -1.59554e-09 3.25932e-06 1.36046e-08
40 1 0.001 -0.0048108 0 -0.0218597 2.02609e-09 0 -1.51624e-09 3.76337e-06 1.53478e-08
41 1 0.001 -0.00437237 0 -0.0214 1.93517e-09 0 -1.41331e-09 4.26926e-06 1.72031e-08
186 2 0.001 -0.0022073 0 -0.0225567 1.35072e-09 0 -7.14954e-10 2.43415e-06 1.15379e-08
187 2 0.001 -0.00174914 0 -0.0221162 1.23149e-09 0 -5.86055e-10 2.85773e-06 1.28849e-08
188 2 0.001 -0.00131519 0 -0.021652 1.11742e-09 0 -4.85095e-10 3.29199e-06 1.43413e-08
189 2 0.001 -0.000908597 0 -0.0211638 1.00734e-09 0 -3.87412e-10 3.72792e-06 1.58818e-08
334 3 0.001 0.00102902 0 -0.0222378 1.16933e-09 0 -6.60798e-10 2.16502e-06 1.2317e-08
335 3 0.001 0.00144858 0 -0.0217605 1.11393e-09 0 -6.17816e-10 2.52994e-06 1.35294e-08
336 3 0.001 0.00184362 0 -0.0212628 1.05881e-09 0 -5.76074e-10 2.90836e-06 1.48393e-08
481 4 0.001 0.00349608 0 -0.0223144 1.07241e-09 0 -7.53718e-10 1.67351e-06 1.86678e-08
482 4 0.001 0.00388735 0 -0.0218142 1.01602e-09 0 -7.05205e-10 1.95849e-06 1.98004e-08
483 4 0.001 0.00425612 0 -0.0212972 9.47105e-10 0 -6.56944e-10 2.25227e-06 2.09859e-08
628 5 0.001 0.0057359 0 -0.0224743 6.32683e-10 0 -5.57811e-10 1.07058e-06 1.74077e-08
629 5 0.001 0.00608107 0 -0.0219411 6.12913e-10 0 -5.45433e-10 1.32508e-06 1.83776e-08
630 5 0.001 0.00640661 0 -0.0213958 5.83135e-10 0 -5.35711e-10 1.58557e-06 1.94063e-08
776 6 0.001 0.00818492 0 -0.0224072 -7.25567e-11 0 9.65687e-11 4.77228e-07 5.87253e-09
777 6 0.001 0.00845113 0 -0.0218294 -3.70198e-11 0 8.4597e-11 6.25964e-07 6.20452e-09
778 6 0.001 0.00870289 0 -0.0212452 -7.80175e-12 0 7.10706e-11 7.9111e-07 6.58128e-09
925 7 0.001 0.0110148 0 -0.0222623 5.88656e-10 0 -3.14797e-10 2.45972e-07 4.67305e-09
926 7 0.001 0.0111798 0 -0.0216477 6.20635e-10 0 -3.31132e-10 3.21176e-07 4.82178e-09
927 7 0.001 0.0113338 0 -0.0210303 6.37146e-10 0 -3.32144e-10 4.04803e-07 4.98991e-09
1075 8 0.001 0.0145063 0 -0.021928 1.76068e-09 0 -2.46689e-10 2.22531e-07 4.231e-09
1076 8 0.001 0.0145748 0 -0.0212953 1.79597e-09 0 -2.47227e-10 2.71907e-07 4.32366e-09
1224 9 0.001 0.018537 0 -0.0224554 -8.39543e-10 0 3.136e-11 2.10606e-07 4.65846e-09
1225 9 0.001 0.0185491 0 -0.0218192 -9.05992e-10 0 3.79493e-11 2.48448e-07 4.73286e-09
1226 9 0.001 0.0185512 0 -0.0211829 -9.81648e-10 0 3.75115e-11 2.88157e-07 4.81158e-09
1374 10 0.001 0.0227862 0 -0.0224188 -1.13183e-09 0 -1.2226e-11 2.33227e-07 4.1221e-09
1375 10 0.001 0.0227441 0 -0.0217838 -1.15594e-09 0 -1.38575e-11 2.63284e-07 4.17765e-09
1376 10 0.001 0.0226917 0 -0.0211495 -1.1114e-09 0 -1.76692e-11 2.93921e-07 4.23464e-09
42 1 0.001 -0.00396492 0 -0.0209128 1.80385e-09 0 -1.32818e-09 4.76601e-06 1.9128e-08
43 1 0.001 -0.0035921 0 -0.0203987 1.67952e-09 0 -1.24791e-09 5.24211e-06 2.10689e-08
44 1 0.001 -0.00325748 0 -0.0198592 1.51562e-09 0 -1.15459e-09 5.68585e-06 2.29626e-08
190 2 0.001 -0.000532574 0 -0.0206518 8.89485e-10 0 -3.0822e-10 4.15655e-06 1.74732e-08
191 2 0.001 -0.000190341 0 -0.0201167 7.98194e-10 0 -2.48006e-10 4.56852e-06 1.90745e-08
337 3 0.001 0.00221126 0 -0.0207447 9.92529e-10 0 -5.36609e-10 3.29049e-06 1.62113e-08
338 3 0.001 0.00254857 0 -0.0202064 9.46337e-10 0 -5.05744e-10 3.66659e-06 1.76179e-08
484 4 0.001 0.00459998 0 -0.0207635 8.80437e-10 0 -6.24656e-10 2.55264e-06 2.22359e-08
485 4 0.001 0.00491645 0 -0.0202132 8.06685e-10 0 -5.67972e-10 2.85621e-06 2.35518e-08
486 4 0.001 0.0052031 0 -0.0196469 7.26726e-10 0 -5.47037e-10 3.15815e-06 2.49178e-08
631 5 0.001 0.0067102 0 -0.0208381 5.19254e-10 0 -5.09775e-10 1.84411e-06 2.04611e-08
632 5 0.001 0.00698955 0 -0.0202679 4.93442e-10 0 -4.93351e-10 2.09387e-06 2.15127e-08
633 5 0.001 0.00724252 0 -0.0196856 4.22333e-10 0 -4.66177e-10 2.33013e-06 2.25307e-08
779 6 0.001 0.00893818 0 -0.0206542 1.66298e-11 0 6.69291e-11 9.70141e-07 6.99627e-09
780 6 0.001 0.009155 0 -0.0200563 5.64614e-11 0 5.28333e-11 1.15951e-06 7.4487e-09
928 7 0.001 0.0114753 0 -0.02041 6.90905e-10 0 -3.54124e-10 4.96008e-07 5.17657e-09
929 7 0.001 0.0116031 0 -0.0197867 6.85873e-10 0 -3.64312e-10 5.93843e-07 5.3806e-09
1077 8 0.001 0.014633 0 -0.0206616 1.83478e-09 0 -2.5753e-10 3.24913e-07 4.42424e-09
1078 8 0.001 0.0146797 0 -0.0200269 1.87998e-09 0 -2.51693e-10 3.81046e-07 4.53202e-09
1227 9 0.001 0.0185425 0 -0.0205466 -1.04621e-09 0 2.99077e-11 3.29341e-07 4.8939e-09
1228 9 0.001 0.0185223 0 -0.0199106 -1.11085e-09 0 2.3366e-11 3.71588e-07 4.97907e-09
1377 10 0.001 0.0226285 0 -0.0205163 -1.08481e-09 0 -1.11094e-11 3.24852e-07 4.29258e-09
1378 10 0.001 0.022554 0 -0.0198843 -1.00672e-09 0 -1.6262e-11 3.55788e-07 4.35092e-09
45 1 0.001 -0.00296449 0 -0.0192961 1.34321e-09 0 -1.0741e-09 6.08574e-06 2.47391e-08
46 1 0.001 -0.0027163 0 -0.018712 1.15549e-09 0 -9.94125e-10 6.43091e-06 2.63259e-08
192 2 0.001 0.000114953 0 -0.0195599 6.99866e-10 0 -1.92258e-10 4.95435e-06 2.06381e-08
193 2 0.001 0.000380309 0 -0.0189831 6.12921e-10 0 -1.56705e-10 5.3047e-06 2.21112e-08
194 2 0.001 0.00060297 0 -0.0183886 5.48249e-10 0 -1.31304e-10 5.61069e-06 2.34396e-08
339 3 0.001 0.00285268 0 -0.0196489 8.84441e-10 0 -4.82323e-10 4.02777e-06 1.9024e-08
340 3 0.001 0.00312081 0 -0.0190732 8.15142e-10 0 -4.55278e-10 4.36577e-06 2.03888e-08
341 3 0.001 0.00335033 0 -0.0184812 7.61984e-10 0 -4.30404e-10 4.67264e-06 2.1669e-08
487 4 0.001 0.00545749 0 -0.0190654 6.62281e-10 0 -5.09518e-10 3.45205e-06 2.62977e-08
488 4 0.001 0.00567731 0 -0.0184701 5.80723e-10 0 -4.85434e-10 3.73024e-06 2.76337e-08