ITEM: TIMESTEP
8600000
ITEM: NUMBER OF ATOMS
1500
ITEM: BOX BOUNDS ff ff ff
-2.5000000000000001e-02 2.5000000000000001e-02
-5.0000000000000001e-03 5.0000000000000001e-03
-5.0000000000000003e-02 5.0000000000000003e-02
ITEM: ATOMS id type radius x y z fx fy fz c_bendingE c_stretchingE
1 1 0.001 -0.0225 0 -0.03116 -0.201485 0 -3.8e-09 1.37145e-06 1.59293e-34
2 1 0.001 -0.0225 0 -0.0305224 0.197444 0 -0.012065 2.78756e-06 6.27876e-09
151 2 0.001 -0.0175 0 -0.03116 -0.249756 0 -3.8e-09 2.10846e-06 1.59293e-34
152 2 0.001 -0.0175 0 -0.0305224 0.246885 0 -0.0162549 4.24349e-06 1.12072e-08
301 3 0.001 -0.0125 0 -0.03116 -0.2928 0 -3.8e-09 2.89957e-06 1.59293e-34
302 3 0.001 -0.0125 0 -0.0305224 0.291534 0 -0.0212231 5.78506e-06 1.8742e-08
451 4 0.001 -0.0075 0 -0.03116 -0.32893 0 -3.8e-09 3.66139e-06 1.59293e-34
452 4 0.001 -0.0075 0 -0.0305224 0.331958 0 -0.0238586 7.20168e-06 2.27515e-08
601 5 0.001 -0.0025 0 -0.03116 -0.334335 0 -3.8e-09 3.78307e-06 1.59293e-34
602 5 0.001 -0.0025 0 -0.0305224 0.340282 0 -0.0249558 7.3755e-06 2.4276e-08
751 6 0.001 0.0025 0 -0.03116 -0.307321 0 -3.8e-09 3.19501e-06 1.59293e-34
752 6 0.001 0.0025 0 -0.0305224 0.315445 0 -0.0219513 6.18156e-06 1.83991e-08
901 7 0.001 0.0075 0 -0.03116 -0.249689 0 -3.8e-09 2.10733e-06 1.59293e-34
902 7 0.001 0.0075 0 -0.0305224 0.257387 0 -0.0175949 4.0648e-06 1.18963e-08
1051 8 0.001 0.0125 0 -0.03116 -0.183261 0 -3.8e-09 1.13438e-06 1.59293e-34
1052 8 0.001 0.0125 0 -0.0305224 0.190282 0 -0.0120585 2.1755e-06 5.61383e-09
1201 9 0.001 0.0175 0 -0.03116 -0.118392 0 -3.8e-09 4.73207e-07 1.59293e-34
1202 9 0.001 0.0175 0 -0.0305224 0.123712 0 -0.00895321 9.02394e-07 3.17579e-09
1351 10 0.001 0.0225 0 -0.03116 -0.0492773 0 -3.8e-09 8.19541e-08 1.59293e-34
1352 10 0.001 0.0225 0 -0.0305224 0.0519632 0 -0.00610787 1.54932e-07 1.52693e-09
3 1 0.001 -0.0224593 0 -0.0298882 7.51408e-10 0 -2.17214e-11 4.23775e-06 1.27489e-08
4 1 0.001 -0.0223775 0 -0.029258 2.18104e-09 0 -1.66682e-10 4.33931e-06 1.30803e-08
153 2 0.001 -0.0174496 0 -0.0298896 3.81414e-10 0 -1.35819e-10 6.38286e-06 2.25143e-08
154 2 0.001 -0.0173489 0 -0.0292628 1.04221e-09 0 -3.40036e-10 6.39576e-06 2.257e-08
303 3 0.001 -0.012441 0 -0.0298911 8.03237e-11 0 -1.48267e-11 8.61799e-06 3.72065e-08
304 3 0.001 -0.0123238 0 -0.029268 2.11545e-10 0 -4.09003e-11 8.46213e-06 3.63458e-08
453 4 0.001 -0.0074338 0 -0.0298922 4.83299e-10 0 -3.80003e-11 1.05721e-05 4.4183e-08
454 4 0.001 -0.00730319 0 -0.029272 1.36124e-09 0 -1.83443e-10 1.00693e-05 4.1191e-08
603 5 0.001 -0.00243273 0 -0.0298924 8.17579e-10 0 -5.47334e-11 1.07299e-05 4.65552e-08
604 5 0.001 -0.00230059 0 -0.0292726 2.31408e-09 0 -3.3761e-10 1.00251e-05 4.22771e-08
753 6 0.001 0.00256189 0 -0.0298914 2.38094e-10 0 -1.47132e-10 8.92924e-06 3.49936e-08
754 6 0.001 0.00268309 0 -0.0292688 6.99507e-10 0 -3.63068e-10 8.22069e-06 3.12822e-08
903 7 0.001 0.00755034 0 -0.0298896 3.0742e-10 0 -4.23535e-11 5.85819e-06 2.27718e-08
904 7 0.001 0.00764891 0 -0.0292624 8.44955e-10 0 -9.97175e-11 5.37024e-06 2.0703e-08
1053 8 0.001 0.012537 0 -0.0298878 -8.94867e-11 0 5.35793e-11 3.12019e-06 1.08034e-08
1054 8 0.001 0.0126093 0 -0.0292562 -3.66301e-10 0 6.76282e-11 2.83252e-06 9.96166e-09
1203 9 0.001 0.0175239 0 -0.0298867 8.84501e-10 0 -6.59863e-11 1.28748e-06 6.20232e-09
1204 9 0.001 0.0175706 0 -0.0292523 2.48984e-09 0 -1.44643e-10 1.1557e-06 5.908e-09
1353 10 0.001 0.02251 0 -0.0298859 7.67258e-10 0 -7.71608e-11 2.19191e-07 3.03292e-09
1354 10 0.001 0.0225293 0 -0.0292496 2.16402e-09 0 -1.36319e-10 1.93103e-07 2.99186e-09
5 1 0.001 -0.0222544 0 -0.0286345 4.24729e-09 0 -5.20042e-10 4.40731e-06 1.33046e-08
6 1 0.001 -0.0220902 0 -0.0280206 6.81881e-09 0 -1.12209e-09 4.44039e-06 1.34144e-08
7 1 0.001 -0.0218856 0 -0.027419 9.81231e-09 0 -2.09046e-09 4.43787e-06 1.3406e-08
155 2 0.001 -0.0171985 0 -0.028646 1.99363e-09 0 -6.45859e-10 6.34225e-06 2.23395e-08
156 2 0.001 -0.0169994 0 -0.0280431 3.12444e-09 0 -1.083e-09 6.22377e-06 2.18332e-08
157 2 0.001 -0.0167534 0 -0.0274578 4.49722e-09 0 -1.69559e-09 6.04348e-06 2.1074e-08
305 3 0.001 -0.0121497 0 -0.0286582 4.03846e-10 0 -8.52254e-11 8.19756e-06 3.49079e-08
306 3 0.001 -0.0119211 0 -0.0280666 6.97261e-10 0 -1.85252e-10 7.83331e-06 3.2976e-08
307 3 0.001 -0.0116411 0 -0.0274974 1.07547e-09 0 -4.03492e-10 7.38152e-06 3.06564e-08
455 4 0.001 -0.00711102 0 -0.0286678 2.48726e-09 0 -4.91545e-10 9.44133e-06 3.76028e-08
456 4 0.001 -0.00686106 0 -0.028085 3.78858e-09 0 -9.93244e-10 8.7115e-06 3.36387e-08
457 4 0.001 -0.00655777 0 -0.0275279 5.17432e-09 0 -1.68123e-09 7.9053e-06 2.95173e-08
605 5 0.001 -0.00210707 0 -0.0286689 4.3339e-09 0 -9.47341e-10 9.20708e-06 3.75716e-08
606 5 0.001 -0.00185652 0 -0.0280864 6.74767e-09 0 -1.94481e-09 8.30617e-06 3.27114e-08
607 5 0.001 -0.00155389 0 -0.0275288 9.36672e-09 0 -3.32083e-09 7.35344e-06 2.79388e-08
755 6 0.001 0.0028602 0 -0.0286595 1.42101e-09 0 -7.11326e-10 7.44531e-06 2.74598e-08
756 6 0.001 0.00308921 0 -0.0280676 2.38738e-09 0 -1.21622e-09 6.62744e-06 2.36987e-08
757 6 0.001 0.00336563 0 -0.0274961 3.5815e-09 0 -1.93169e-09 5.79091e-06 2.01387e-08
905 7 0.001 0.00779313 0 -0.028644 1.60243e-09 0 -2.26202e-10 4.8525e-06 1.86158e-08
906 7 0.001 0.00798005 0 -0.028037 2.49271e-09 0 -4.4655e-10 4.31764e-06 1.65763e-08
907 7 0.001 0.00820641 0 -0.0274434 3.44738e-09 0 -7.85649e-10 3.77793e-06 1.46383e-08
1055 8 0.001 0.0127151 0 -0.0286293 -8.08744e-10 0 1.18755e-10 2.54018e-06 9.14125e-09
1056 8 0.001 0.0128523 0 -0.0280084 -1.5193e-09 0 2.83105e-10 2.24791e-06 8.35632e-09
1057 8 0.001 0.0130187 0 -0.0273946 -2.37258e-09 0 5.83919e-10 1.96022e-06 7.61811e-09
1205 9 0.001 0.0176388 0 -0.0286197 4.54713e-09 0 -2.16773e-10 1.02524e-06 5.62369e-09
1206 9 0.001 0.0177271 0 -0.0279897 6.84836e-09 0 -3.45432e-10 8.97621e-07 5.35236e-09
1207 9 0.001 0.0178342 0 -0.0273625 9.34124e-09 0 -6.11683e-10 7.74284e-07 5.0965e-09
1355 10 0.001 0.0225575 0 -0.0286137 4.08575e-09 0 -2.13471e-10 1.67991e-07 2.9526e-09
1356 10 0.001 0.0225939 0 -0.0279781 6.24887e-09 0 -3.25369e-10 1.44048e-07 2.91541e-09
1357 10 0.001 0.0226379 0 -0.027343 8.64987e-09 0 -4.99082e-10 1.2146e-07 2.88055e-09
8 1 0.001 -0.0216413 0 -0.0268323 1.31273e-08 0 -3.41872e-09 4.39979e-06 1.32797e-08
9 1 0.001 -0.0213587 0 -0.0262631 1.6632e-08 0 -5.09844e-09 4.32694e-06 1.30397e-08
158 2 0.001 -0.0164627 0 -0.0268933 5.99058e-09 0 -2.50246e-09 5.80612e-06 2.0095e-08
159 2 0.001 -0.0161298 0 -0.0263525 7.64494e-09 0 -3.53915e-09 5.51779e-06 1.89372e-08
160 2 0.001 -0.0157577 0 -0.0258378 9.37357e-09 0 -4.78636e-09 5.18566e-06 1.76462e-08
308 3 0.001 -0.0113132 0 -0.0269542 1.58884e-09 0 -7.22759e-10 6.85668e-06 2.80683e-08
309 3 0.001 -0.0109415 0 -0.0264399 2.25337e-09 0 -1.17716e-09 6.27488e-06 2.53331e-08
310 3 0.001 -0.0105301 0 -0.0259565 2.9729e-09 0 -1.81016e-09 5.65304e-06 2.25651e-08
458 4 0.001 -0.00620612 0 -0.0269997 6.63067e-09 0 -2.61065e-09 7.04913e-06 2.5436e-08
459 4 0.001 -0.0058113 0 -0.0265026 8.13597e-09 0 -3.76908e-09 6.16895e-06 2.15575e-08
460 4 0.001 -0.00537861 0 -0.0260378 9.68792e-09 0 -5.1602e-09 5.28923e-06 1.8002e-08
608 5 0.001 -0.00120454 0 -0.0269989 1.20548e-08 0 -5.01031e-09 6.37922e-06 2.34485e-08
609 5 0.001 -0.00081393 0 -0.0264984 1.47008e-08 0 -6.94923e-09 5.4118e-06 1.93792e-08
610 5 0.001 -0.000387516 0 -0.0260276 1.71535e-08 0 -9.07048e-09 4.47655e-06 1.58139e-08
758 6 0.001 0.00368474 0 -0.0269469 4.93453e-09 0 -2.86639e-09 4.95803e-06 1.68825e-08
759 6 0.001 0.00404172 0 -0.0264214 6.4108e-09 0 -4.00997e-09 4.14903e-06 1.39945e-08
760 6 0.001 0.00443181 0 -0.0259197 7.94925e-09 0 -5.36745e-09 3.3816e-06 1.15052e-08
908 7 0.001 0.00846879 0 -0.0268646 4.35739e-09 0 -1.19891e-09 3.24492e-06 1.28428e-08
909 7 0.001 0.00876368 0 -0.0263016 5.1917e-09 0 -1.62715e-09 2.72917e-06 1.12172e-08
910 7 0.001 0.00908753 0 -0.0257545 5.92443e-09 0 -2.02628e-09 2.24009e-06 9.77721e-09
1058 8 0.001 0.0132121 0 -0.0267887 -3.48519e-09 0 1.037e-09 1.68129e-06 6.93497e-09
1059 8 0.001 0.0134301 0 -0.0261911 -4.77272e-09 0 1.59262e-09 1.41493e-06 6.31259e-09
1208 9 0.001 0.0179587 0 -0.0267385 1.21022e-08 0 -9.95544e-10 6.56571e-07 4.85816e-09
1209 9 0.001 0.0180991 0 -0.0261178 1.47876e-08 0 -1.53164e-09 5.45723e-07 4.63893e-09
1358 10 0.001 0.0226888 0 -0.0267085 1.09876e-08 0 -6.88205e-10 1.00399e-07 2.84822e-09
1359 10 0.001 0.0227461 0 -0.0260744 1.31553e-08 0 -8.56281e-10 8.10233e-08 2.81865e-09
10 1 0.001 -0.0210393 0 -0.0257137 2.0214e-08 0 -7.11676e-09 4.22079e-06 1.26939e-08
11 1 0.001 -0.0206849 0 -0.0251861 2.3794e-08 0 -9.47533e-09 4.08344e-06 1.22533e-08
12 1 0.001 -0.0202976 0 -0.0246822 2.72943e-08 0 -1.21055e-08 3.9176e-06 1.17318e-08
161 2 0.001 -0.0153495 0 -0.0253512 1.11913e-08 0 -6.27642e-09 4.8177e-06 1.62693e-08
162 2 0.001 -0.0149084 0 -0.0248939 1.30071e-08 0 -7.97252e-09 4.42237e-06 1.48524e-08
163 2 0.001 -0.0144379 0 -0.0244668 1.47701e-08 0 -9.88118e-09 4.00832e-06 1.34377e-08
311 3 0.001 -0.0100835 0 -0.0255052 3.71225e-09 0 -2.55321e-09 5.00816e-06 1.98639e-08
312 3 0.001 -0.00960599 0 -0.0250865 4.53531e-09 0 -3.48927e-09 4.35666e-06 1.73102e-08
313 3 0.001 -0.00910183 0 -0.0246999 5.32674e-09 0 -4.50857e-09 3.71392e-06 1.4963e-08
314 3 0.001 -0.008575 0 -0.0243447 6.16419e-09 0 -5.72584e-09 3.09386e-06 1.28608e-08
461 4 0.001 -0.00491319 0 -0.0256054 1.12292e-08 0 -6.72673e-09 4.4322e-06 1.48464e-08
462 4 0.001 -0.00441996 0 -0.0252048 1.26937e-08 0 -8.42043e-09 3.61732e-06 1.21278e-08
463 4 0.001 -0.00390347 0 -0.0248342 1.40654e-08 0 -1.01968e-08 2.86109e-06 9.85045e-09
464 4 0.001 -0.00336786 0 -0.0244915 1.53056e-08 0 -1.20151e-08 2.17711e-06 7.99407e-09
611 5 0.001 6.94787e-05 0 -0.0255861 1.94079e-08 0 -1.12859e-08 3.5954e-06 1.27861e-08
612 5 0.001 0.00055215 0 -0.0251725 2.13812e-08 0 -1.34999e-08 2.78666e-06 1.02897e-08
613 5 0.001 0.00105599 0 -0.0247847 2.30958e-08 0 -1.56339e-08 2.06514e-06 8.29052e-09
614 5 0.001 0.0015769 0 -0.0244197 2.45474e-08 0 -1.76368e-08 1.44244e-06 6.7379e-09
761 6 0.001 0.0048504 0 -0.0254412 9.53653e-09 0 -6.8993e-09 2.67074e-06 9.41651e-09
762 6 0.001 0.00529312 0 -0.0249847 1.10405e-08 0 -8.50322e-09 2.02883e-06 7.70964e-09
763 6 0.001 0.0057559 0 -0.0245484 1.24678e-08 0 -1.01432e-08 1.46575e-06 6.35234e-09
911 7 0.001 0.00943686 0 -0.0252232 6.50339e-09 0 -2.36812e-09 1.78591e-06 8.52847e-09
912 7 0.001 0.00980827 0 -0.024707 6.88943e-09 0 -2.62197e-09 1.37361e-06 7.46864e-09
1060 8 0.001 0.0136704 0 -0.0256021 -6.08871e-09 0 2.18056e-09 1.1646e-06 5.75429e-09
1061 8 0.001 0.0139306 0 -0.0250215 -7.38548e-09 0 2.81116e-09 9.33313e-07 5.26144e-09
1062 8 0.001 0.0142083 0 -0.024449 -8.683e-09 0 3.5257e-09 7.23726e-07 4.83386e-09
1210 9 0.001 0.0182539 0 -0.0255006 1.73915e-08 0 -2.1403e-09 4.42871e-07 4.44004e-09
1211 9 0.001 0.0184216 0 -0.0248867 1.9771e-08 0 -2.76172e-09 3.49033e-07 4.26238e-09
1212 9 0.001 0.0186006 0 -0.024276 2.18121e-08 0 -3.24285e-09 2.65109e-07 4.10657e-09
1360 10 0.001 0.0228091 0 -0.0254409 1.50667e-08 0 -1.05676e-09 6.34793e-08 2.792e-09
1361 10 0.001 0.0228771 0 -0.0248079 1.65376e-08 0 -1.23619e-09 4.78973e-08 2.76844e-09
13 1 0.001 -0.0198794 0 -0.0242035 3.06631e-08 0 -1.49837e-08 3.72643e-06 1.11448e-08
14 1 0.001 -0.0194329 0 -0.0237511 3.38186e-08 0 -1.80124e-08 3.51348e-06 1.05086e-08
15 1 0.001 -0.0189603 0 -0.0233259 3.67349e-08 0 -2.11329e-08 3.2826e-06 9.84e-09
16 1 0.001 -0.018464 0 -0.0229284 3.93579e-08 0 -2.42816e-08 3.03778e-06 9.15511e-09
164 2 0.001 -0.0139413 0 -0.0240703 1.64551e-08 0 -1.19764e-08 3.5841e-06 1.20618e-08
165 2 0.001 -0.0134218 0 -0.0237041 1.80395e-08 0 -1.41969e-08 3.15796e-06 1.07546e-08
166 2 0.001 -0.0128824 0 -0.0233675 1.94484e-08 0 -1.64234e-08 2.73767e-06 9.53874e-09
167 2 0.001 -0.0123262 0 -0.0230594 2.0673e-08 0 -1.86986e-08 2.33034e-06 8.43001e-09
168 2 0.001 -0.0117557 0 -0.0227784 2.17264e-08 0 -2.08357e-08 1.94239e-06 7.43769e-09
315 3 0.001 -0.00802915 0 -0.024019 7.01127e-09 0 -7.0802e-09 2.50881e-06 1.1023e-08
316 3 0.001 -0.00746763 0 -0.0237209 7.84727e-09 0 -8.59774e-09 1.96934e-06 9.45379e-09
317 3 0.001 -0.00689339 0 -0.0234478 8.64194e-09 0 -1.02168e-08 1.48432e-06 8.14557e-09
318 3 0.001 -0.00630903 0 -0.0231967 9.43815e-09 0 -1.19279e-08 1.06097e-06 7.08308e-09
319 3 0.001 -0.00571681 0 -0.0229646 1.01913e-08 0 -1.36746e-08 7.05328e-07 6.24484e-09
320 3 0.001 -0.00511867 0 -0.0227479 1.08916e-08 0 -1.54231e-08 4.22748e-07 5.58321e-09
465 4 0.001 -0.00281681 0 -0.0241738 1.64407e-08 0 -1.38582e-08 1.57622e-06 6.52247e-09
466 4 0.001 -0.00225361 0 -0.023878 1.74796e-08 0 -1.57049e-08 1.06702e-06 5.38539e-09
467 4 0.001 -0.00168109 0 -0.0236003 1.84236e-08 0 -1.75374e-08 6.57186e-07 4.51951e-09
468 4 0.001 -0.00110174 0 -0.0233369 1.92979e-08 0 -1.93267e-08 3.51956e-07 3.88173e-09
469 4 0.001 -0.000517741 0 -0.0230838 2.00829e-08 0 -2.09926e-08 1.51304e-07 3.43818e-09
470 4 0.001 6.90225e-05 0 -0.022837 2.0803e-08 0 -2.25012e-08 4.66502e-08 3.14973e-09
615 5 0.001 0.00211124 0 -0.0240745 2.57504e-08 0 -1.94285e-08 9.27856e-07 5.56823e-09
616 5 0.001 0.00265571 0 -0.0237453 2.66881e-08 0 -2.09458e-08 5.29061e-07 4.68634e-09
617 5 0.001 0.00320741 0 -0.023428 2.74149e-08 0 -2.21337e-08 2.50031e-07 4.0389e-09
618 5 0.001 0.00376369 0 -0.0231188 2.79066e-08 0 -2.2955e-08 8.73909e-08 3.62589e-09
619 5 0.001 0.00432223 0 -0.0228135 2.81868e-08 0 -2.3398e-08 2.7994e-08 3.42185e-09
764 6 0.001 0.00623496 0 -0.0241297 1.37356e-08 0 -1.17284e-08 9.89172e-07 5.3057e-09
765 6 0.001 0.00672681 0 -0.023726 1.4813e-08 0 -1.31459e-08 6.04919e-07 4.52721e-09
766 6 0.001 0.00722823 0 -0.0233341 1.56107e-08 0 -1.42986e-08 3.17884e-07 3.95939e-09
767 6 0.001 0.00773623 0 -0.0229507 1.61518e-08 0 -1.51216e-08 1.30231e-07 3.56014e-09
913 7 0.001 0.0101985 0 -0.0242047 7.14188e-09 0 -2.77821e-09 1.00903e-06 6.5899e-09
914 7 0.001 0.0106043 0 -0.0237148 7.20641e-09 0 -2.77925e-09 6.969e-07 5.88114e-09
915 7 0.001 0.0110228 0 -0.0232356 7.09644e-09 0 -2.65635e-09 4.40963e-07 5.32994e-09
916 7 0.001 0.0114511 0 -0.022765 6.80642e-09 0 -2.32337e-09 2.44071e-07 4.92428e-09
1063 8 0.001 0.0145012 0 -0.023884 -9.86916e-09 0 4.21112e-09 5.38093e-07 4.47025e-09
1064 8 0.001 0.014807 0 -0.023326 -1.09766e-08 0 4.80255e-09 3.78305e-07 4.16863e-09
1065 8 0.001 0.0151235 0 -0.0227738 -1.20538e-08 0 5.4111e-09 2.45908e-07 3.92668e-09
1213 9 0.001 0.0187895 0 -0.0236683 2.36306e-08 0 -3.74894e-09 1.91883e-07 3.97298e-09
1214 9 0.001 0.0189867 0 -0.0230631 2.51727e-08 0 -4.17016e-09 1.30021e-07 3.86184e-09
1362 10 0.001 0.0229494 0 -0.0241754 1.75839e-08 0 -1.40298e-09 3.43927e-08 2.7481e-09
1363 10 0.001 0.0230253 0 -0.0235434 1.79797e-08 0 -1.49255e-09 2.30649e-08 2.7311e-09
1364 10 0.001 0.0231043 0 -0.0229116 1.77901e-08 0 -1.49992e-09 1.39967e-08 2.71752e-09
17 1 0.001 -0.0179467 0 -0.0225587 4.17093e-08 0 -2.74088e-08 2.78312e-06 8.4689e-09
18 1 0.001 -0.0174105 0 -0.0222168 4.37737e-08 0 -3.0515e-08 2.52266e-06 7.79476e-09
19 1 0.001 -0.0168577 0 -0.0219021 4.5617e-08 0 -3.35804e-08 2.26036e-06 7.14413e-09
20 1 0.001 -0.0162907 0 -0.021614 4.71946e-08 0 -3.65393e-08 2e-06 6.52634e-09
21 1 0.001 -0.0157112 0 -0.0213514 4.8526e-08 0 -3.93178e-08 1.74511e-06 5.94862e-09
169 2 0.001 -0.0111733 0 -0.0225227 2.26001e-08 0 -2.28188e-08 1.57947e-06 6.5656e-09
170 2 0.001 -0.0105811 0 -0.0222901 2.33161e-08 0 -2.45991e-08 1.24648e-06 5.81318e-09
171 2 0.001 -0.00998114 0 -0.0220785 2.39188e-08 0 -2.61906e-08 9.47543e-07 5.17665e-09
172 2 0.001 -0.00937489 0 -0.0218852 2.43812e-08 0 -2.75736e-08 6.86109e-07 4.65014e-09
173 2 0.001 -0.00876378 0 -0.0217077 2.47512e-08 0 -2.87512e-08 4.64966e-07 4.22675e-09
174 2 0.001 -0.008149 0 -0.0215432 2.50109e-08 0 -2.96666e-08 2.86481e-07 3.8932e-09
175 2 0.001 -0.00753155 0 -0.0213887 2.52191e-08 0 -3.03235e-08 1.52644e-07 3.63588e-09
176 2 0.001 -0.0069123 0 -0.0212415 2.53284e-08 0 -3.07046e-08 6.42331e-08 3.45383e-09
321 3 0.001 -0.00451626 0 -0.0225431 1.15179e-08 0 -1.7102e-08 2.16685e-07 5.0576e-09
322 3 0.001 -0.00391104 0 -0.0223466 1.2087e-08 0 -1.87653e-08 8.64539e-08 4.67333e-09
323 3 0.001 -0.00330424 0 -0.0221549 1.26095e-08 0 -2.03497e-08 2.49642e-08 4.43464e-09
324 3 0.001 -0.00269695 0 -0.0219647 1.31177e-08 0 -2.18407e-08 1.92614e-08 4.30353e-09
325 3 0.001 -0.00209012 0 -0.021773 1.35685e-08 0 -2.31516e-08 5.36308e-08 4.22695e-09
326 3 0.001 -0.0014846 0 -0.0215772 1.39925e-08 0 -2.43491e-08 1.13394e-07 4.17673e-09
327 3 0.001 -0.000881137 0 -0.021375 1.43575e-08 0 -2.53978e-08 1.87735e-07 4.13928e-09
471 4 0.001 0.000656904 0 -0.0225928 2.14479e-08 0 -2.37951e-08 2.14633e-08 2.99707e-09
472 4 0.001 0.00124445 0 -0.0223478 2.19764e-08 0 -2.48367e-08 5.42975e-08 2.95779e-09
473 4 0.001 0.00183038 0 -0.0220989 2.24043e-08 0 -2.56645e-08 1.23488e-07 2.9699e-09
474 4 0.001 0.00241358 0 -0.0218437 2.27081e-08 0 -2.6276e-08 2.11684e-07 2.99702e-09
475 4 0.001 0.00299302 0 -0.0215801 2.29122e-08 0 -2.66857e-08 3.08437e-07 3.06e-09
476 4 0.001 0.00356775 0 -0.0213064 2.30248e-08 0 -2.68977e-08 4.09836e-07 3.18082e-09
620 5 0.001 0.00488093 0 -0.0225085 2.8225e-08 0 -2.34358e-08 5.06677e-08 3.38475e-09
621 5 0.001 0.00543789 0 -0.0222004 2.80341e-08 0 -2.30824e-08 1.30205e-07 3.46834e-09
622 5 0.001 0.00599144 0 -0.0218862 2.7605e-08 0 -2.23852e-08 2.42049e-07 3.61141e-09
623 5 0.001 0.00654005 0 -0.0215635 2.69893e-08 0 -2.13352e-08 3.66834e-07 3.77011e-09
768 6 0.001 0.00824801 0 -0.0225722 1.63654e-08 0 -1.55274e-08 3.91645e-08 3.31765e-09
624 5 0.001 0.00708237 0 -0.0212304 2.61643e-08 0 -1.99933e-08 4.93203e-07 3.92733e-09
769 6 0.001 0.00876098 0 -0.0221953 1.62535e-08 0 -1.54416e-08 3.47287e-08 3.23013e-09
770 6 0.001 0.00927272 0 -0.0218167 1.57858e-08 0 -1.48831e-08 1.01068e-07 3.28934e-09
771 6 0.001 0.00978096 0 -0.0214335 1.493e-08 0 -1.38494e-08 2.1898e-07 3.46765e-09
917 7 0.001 0.0118863 0 -0.0223008 6.30557e-09 0 -1.76985e-09 1.08291e-07 4.65342e-09
918 7 0.001 0.0123259 0 -0.0218407 5.58749e-09 0 -9.88962e-10 3.48998e-08 4.49747e-09
919 7 0.001 0.0127672 0 -0.0213822 4.56287e-09 0 7.20013e-11 2.34474e-08 4.4435e-09
1066 8 0.001 0.0154485 0 -0.0222266 -1.31863e-08 0 6.03311e-09 1.42126e-07 3.74207e-09
1067 8 0.001 0.0157797 0 -0.021683 -1.41628e-08 0 6.65839e-09 6.78823e-08 3.61272e-09
1215 9 0.001 0.0191907 0 -0.0224602 2.6227e-08 0 -4.45671e-09 8.00746e-08 3.77326e-09
1216 9 0.001 0.0193999 0 -0.0218591 2.69083e-08 0 -4.58335e-09 4.24796e-08 3.70725e-09
1217 9 0.001 0.0196128 0 -0.0212593 2.71621e-08 0 -4.54238e-09 1.75599e-08 3.66382e-09
1365 10 0.001 0.0231855 0 -0.0222802 1.70207e-08 0 -1.44073e-09 7.25434e-09 2.70745e-09
1366 10 0.001 0.0232684 0 -0.021649 1.57288e-08 0 -1.31617e-09 2.88678e-09 2.70093e-09
22 1 0.001 -0.0151213 0 -0.0211132 4.96495e-08 0 -4.1887e-08 1.49898e-06 5.41616e-09
23 1 0.001 -0.0145226 0 -0.0208978 5.0501e-08 0 -4.4137e-08 1.2646e-06 4.9323e-09
24 1 0.001 -0.0139165 0 -0.0207039 5.11668e-08 0 -4.6083e-08 1.04464e-06 4.4988e-09
25 1 0.001 -0.0133045 0 -0.0205294 5.16313e-08 0 -4.76272e-08 8.41474e-07 4.11607e-09
26 1 0.001 -0.0126877 0 -0.0203727 5.19905e-08 0 -4.88459e-08 6.57147e-07 3.78354e-09
27 1 0.001 -0.012067 0 -0.0202318 5.22299e-08 0 -4.96285e-08 4.93423e-07 3.4999e-09
28 1 0.001 -0.0114433 0 -0.0201045 5.23335e-08 0 -4.9947e-08 3.51782e-07 3.2634e-09
29 1 0.001 -0.0108174 0 -0.0199888 5.23813e-08 0 -4.98478e-08 2.33439e-07 3.07213e-09
30 1 0.001 -0.0101897 0 -0.0198825 5.23269e-08 0 -4.93029e-08 1.39364e-07 2.92418e-09
31 1 0.001 -0.00956088 0 -0.0197833 5.22431e-08 0 -4.83799e-08 7.02987e-08 2.81788e-09
177 2 0.001 -0.00629202 0 -0.0210987 2.5394e-08 0 -3.08063e-08 1.94613e-08 3.33416e-09
178 2 0.001 -0.00567137 0 -0.0209573 2.54273e-08 0 -3.06259e-08 1.32402e-08 3.23908e-09
179 2 0.001 -0.00505094 0 -0.020815 2.53948e-08 0 -3.01677e-08 3.84203e-08 3.14093e-09
180 2 0.001 -0.00443129 0 -0.0206692 2.53057e-08 0 -2.96189e-08 8.80407e-08 3.04539e-09
181 2 0.001 -0.00381296 0 -0.0205178 2.51753e-08 0 -2.89485e-08 1.57144e-07 2.98397e-09
182 2 0.001 -0.00319654 0 -0.0203588 2.50588e-08 0 -2.82452e-08 2.43507e-07 2.99179e-09
183 2 0.001 -0.00258265 0 -0.0201904 2.49117e-08 0 -2.74488e-08 3.4779e-07 3.09548e-09
184 2 0.001 -0.00197199 0 -0.0200106 2.47736e-08 0 -2.6699e-08 4.73649e-07 3.30399e-09
185 2 0.001 -0.00136538 0 -0.0198178 2.46191e-08 0 -2.60006e-08 6.28218e-07 3.62589e-09
328 3 0.001 -0.000280476 0 -0.0211647 1.46734e-08 0 -2.62544e-08 2.70521e-07 4.12354e-09
329 3 0.001 0.000316663 0 -0.0209446 1.49562e-08 0 -2.69531e-08 3.59847e-07 4.15449e-09
330 3 0.001 0.000909535 0 -0.0207133 1.51877e-08 0 -2.75505e-08 4.57242e-07 4.24997e-09
331 3 0.001 0.00149734 0 -0.0204694 1.53951e-08 0 -2.80124e-08 5.66879e-07 4.43164e-09
332 3 0.001 0.00207919 0 -0.0202117 1.55477e-08 0 -2.83215e-08 6.9525e-07 4.72544e-09
333 3 0.001 0.00265405 0 -0.019939 1.55842e-08 0 -2.84225e-08 8.50897e-07 5.13921e-09
477 4 0.001 0.00413682 0 -0.0210212 2.30101e-08 0 -2.68494e-08 5.16365e-07 3.36838e-09
478 4 0.001 0.00469926 0 -0.0207232 2.28615e-08 0 -2.65378e-08 6.30978e-07 3.62368e-09
479 4 0.001 0.00525405 0 -0.0204113 2.25034e-08 0 -2.59124e-08 7.58042e-07 3.95671e-09
480 4 0.001 0.00580003 0 -0.0200843 2.19557e-08 0 -2.49948e-08 9.03097e-07 4.38293e-09
481 4 0.001 0.00633596 0 -0.0197412 2.11589e-08 0 -2.37384e-08 1.07297e-06 4.91724e-09
625 5 0.001 0.00761714 0 -0.0208854 2.51135e-08 0 -1.83766e-08 6.17694e-07 4.08534e-09
626 5 0.001 0.00814317 0 -0.0205272 2.38471e-08 0 -1.6538e-08 7.4236e-07 4.27635e-09
627 5 0.001 0.00865925 0 -0.0201548 2.2369e-08 0 -1.45151e-08 8.72147e-07 4.52884e-09
628 5 0.001 0.00916413 0 -0.0197675 2.06721e-08 0 -1.23319e-08 1.01293e-06 4.84492e-09
772 6 0.001 0.0102836 0 -0.021043 1.37545e-08 0 -1.24236e-08 3.68598e-07 3.73215e-09
773 6 0.001 0.0107787 0 -0.020643 1.22264e-08 0 -1.0609e-08 5.32057e-07 4.04366e-09
774 6 0.001 0.0112644 0 -0.0202318 1.04167e-08 0 -8.53716e-09 6.96547e-07 4.36675e-09
775 6 0.001 0.011739 0 -0.0198079 8.35957e-09 0 -6.29354e-09 8.55716e-07 4.69672e-09
920 7 0.001 0.0132077 0 -0.0209229 3.31086e-09 0 1.3888e-09 7.05492e-08 4.49118e-09
921 7 0.001 0.0136448 0 -0.0204604 1.80899e-09 0 2.93305e-09 1.69227e-07 4.63204e-09
922 7 0.001 0.0140761 0 -0.0199926 8.86034e-11 0 4.68323e-09 3.09663e-07 4.85761e-09
1068 8 0.001 0.0161151 0 -0.0211421 -1.5209e-08 0 7.28101e-09 2.38174e-08 3.53702e-09
1069 8 0.001 0.0164524 0 -0.0206023 -1.62343e-08 0 7.93082e-09 1.03039e-08 3.51397e-09
1070 8 0.001 0.0167896 0 -0.0200625 -1.71975e-08 0 8.60236e-09 2.74547e-08 3.54324e-09
1218 9 0.001 0.0198279 0 -0.0206603 2.70103e-08 0 -4.35543e-09 5.52771e-09 3.64294e-09
1219 9 0.001 0.0200437 0 -0.0200615 2.6455e-08 0 -4.05435e-09 6.485e-09 3.64459e-09
1367 10 0.001 0.0233521 0 -0.0210179 1.39954e-08 0 -1.14035e-09 9.25734e-10 2.69801e-09
1368 10 0.001 0.0234361 0 -0.0203868 1.18942e-08 0 -9.20435e-10 1.38542e-09 2.69869e-09
1369 10 0.001 0.0235196 0 -0.0197557 9.53825e-09 0 -6.6168e-10 4.26255e-09 2.70297e-09
32 1 0.001 -0.00893126 0 -0.0196891 5.21282e-08 0 -4.71473e-08 2.67711e-08 2.75187e-09
33 1 0.001 -0.00830125 0 -0.0195975 5.19655e-08 0 -4.56309e-08 9.19229e-09 2.7186e-09
34 1 0.001 -0.00767117 0 -0.0195064 5.179e-08 0 -4.38596e-08 1.85368e-08 2.70581e-09
35 1 0.001 -0.00704137 0 -0.0194134 5.15477e-08 0 -4.18665e-08 5.74652e-08 2.71047e-09
36 1 0.001 -0.00641221 0 -0.0193161 5.12519e-08 0 -3.96936e-08 1.3155e-07 2.7444e-09
37 1 0.001 -0.00578415 0 -0.019212 5.08824e-08 0 -3.73427e-08 2.50224e-07 2.84013e-09
38 1 0.001 -0.00515777 0 -0.0190984 5.04601e-08 0 -3.47325e-08 4.27521e-07 3.03504e-09
39 1 0.001 -0.00453383 0 -0.0189723 4.99381e-08 0 -3.18241e-08 6.82506e-07 3.37303e-09
40 1 0.001 -0.00391336 0 -0.0188303 4.92571e-08 0 -2.8631e-08 1.0389e-06 3.93019e-09
41 1 0.001 -0.00329777 0 -0.018669 4.83588e-08 0 -2.51236e-08 1.5234e-06 4.82087e-09
42 1 0.001 -0.00268894 0 -0.0184842 4.71778e-08 0 -2.11804e-08 2.16236e-06 6.20374e-09
186 2 0.001 -0.000763779 0 -0.0196101 2.44118e-08 0 -2.53619e-08 8.22952e-07 4.09484e-09
43 1 0.001 -0.00208939 0 -0.0182718 4.55954e-08 0 -1.68092e-08 2.97663e-06 8.27988e-09
187 2 0.001 -0.000168377 0 -0.0193854 2.41961e-08 0 -2.47513e-08 1.07454e-06 4.75657e-09
188 2 0.001 0.000419359 0 -0.0191417 2.39985e-08 0 -2.41429e-08 1.40365e-06 5.63807e-09
189 2 0.001 0.000997579 0 -0.0188764 2.375e-08 0 -2.35388e-08 1.83216e-06 6.80156e-09
190 2 0.001 0.00156395 0 -0.0185871 2.33646e-08 0 -2.27837e-08 2.37651e-06 8.37839e-09
191 2 0.001 0.00211555 0 -0.0182708 2.29043e-08 0 -2.19772e-08 3.04344e-06 1.04729e-08
334 3 0.001 0.00322075 0 -0.0196497 1.55719e-08 0 -2.83302e-08 1.04419e-06 5.65994e-09
335 3 0.001 0.00377783 0 -0.0193425 1.54507e-08 0 -2.8009e-08 1.28752e-06 6.30581e-09
336 3 0.001 0.00432359 0 -0.0190157 1.51834e-08 0 -2.752e-08 1.59496e-06 7.14548e-09
337 3 0.001 0.00485591 0 -0.0186677 1.47722e-08 0 -2.6865e-08 1.97963e-06 8.25163e-09
338 3 0.001 0.00537228 0 -0.0182966 1.41873e-08 0 -2.60309e-08 2.44951e-06 9.68964e-09
482 4 0.001 0.00686038 0 -0.0193809 2.0094e-08 0 -2.21776e-08 1.27567e-06 5.57543e-09
483 4 0.001 0.00737163 0 -0.0190023 1.86992e-08 0 -2.03294e-08 1.5193e-06 6.34827e-09
484 4 0.001 0.00786777 0 -0.0186042 1.69286e-08 0 -1.81945e-08 1.81116e-06 7.22795e-09
485 4 0.001 0.00834657 0 -0.0181856 1.47575e-08 0 -1.57948e-08 2.1567e-06 8.2488e-09
629 5 0.001 0.00965645 0 -0.0193644 1.87731e-08 0 -1.00421e-08 1.17077e-06 5.22841e-09
630 5 0.001 0.0101347 0 -0.0189448 1.67012e-08 0 -7.72892e-09 1.35166e-06 5.70283e-09
631 5 0.001 0.0105973 0 -0.018508 1.45368e-08 0 -5.44581e-09 1.56172e-06 6.28932e-09
776 6 0.001 0.012201 0 -0.0193704 6.13982e-09 0 -4.02331e-09 1.00948e-06 5.04877e-09
777 6 0.001 0.0126489 0 -0.0189184 3.80936e-09 0 -1.76121e-09 1.1618e-06 5.43005e-09
778 6 0.001 0.0130811 0 -0.0184516 1.49625e-09 0 3.86963e-10 1.31831e-06 5.83264e-09
923 7 0.001 0.0144992 0 -0.0195173 -1.82145e-09 0 6.55608e-09 4.80577e-07 5.16565e-09
924 7 0.001 0.0149119 0 -0.0190331 -3.91546e-09 0 8.50636e-09 6.70564e-07 5.54847e-09
925 7 0.001 0.0153119 0 -0.0185384 -6.14381e-09 0 1.04446e-08 8.69214e-07 5.98999e-09
1071 8 0.001 0.0171246 0 -0.0195212 -1.81982e-08 0 9.27251e-09 7.5126e-08 3.62524e-09
1072 8 0.001 0.0174552 0 -0.0189773 -1.92119e-08 0 9.96498e-09 1.52908e-07 3.76108e-09
1073 8 0.001 0.0177792 0 -0.0184296 -2.03078e-08 0 1.06766e-08 2.59739e-07 3.95244e-09
1220 9 0.001 0.0202586 0 -0.0194624 2.55654e-08 0 -3.65896e-09 2.04238e-08 3.66877e-09
1221 9 0.001 0.020471 0 -0.0188624 2.44017e-08 0 -3.18324e-09 4.72263e-08 3.71551e-09
1222 9 0.001 0.0206796 0 -0.0182611 2.29353e-08 0 -2.57407e-09 8.6664e-08 3.78482e-09
1370 10 0.001 0.0236019 0 -0.0191244 6.99706e-09 0 -3.77483e-10 9.5363e-09 2.71083e-09
1371 10 0.001 0.0236824 0 -0.0184928 4.25482e-09 0 -7.63292e-11 1.71684e-08 2.72224e-09
44 1 0.001 -0.00150237 0 -0.0180276 4.35014e-08 0 -1.18755e-08 3.97541e-06 1.12943e-08
45 1 0.001 -0.00093202 0 -0.0177473 4.08264e-08 0 -6.49931e-09 5.14961e-06 1.54438e-08
46 1 0.001 -0.000383381 0 -0.0174273 3.74023e-08 0 -6.99405e-10 6.46841e-06 2.07314e-08
47 1 0.001 0.000137591 0 -0.0170646 3.30975e-08 0 5.42044e-09 7.8858e-06 2.70856e-08
192 2 0.001 0.00264886 0 -0.017925 2.22284e-08 0 -2.09446e-08 3.82646e-06 1.3143e-08
193 2 0.001 0.00315972 0 -0.0175472 2.13282e-08 0 -1.97156e-08 4.70689e-06 1.64059e-08
194 2 0.001 0.00364341 0 -0.0171356 2.01907e-08 0 -1.83546e-08 5.65529e-06 2.01806e-08
195 2 0.001 0.00409471 0 -0.016689 1.87146e-08 0 -1.68458e-08 6.63892e-06 2.44092e-08
339 3 0.001 0.0058697 0 -0.0179008 1.34066e-08 0 -2.50917e-08 3.00367e-06 1.14952e-08
340 3 0.001 0.0063447 0 -0.0174785 1.24618e-08 0 -2.40682e-08 3.63137e-06 1.36442e-08
341 3 0.001 0.00679339 0 -0.0170287 1.13492e-08 0 -2.29917e-08 4.31384e-06 1.61166e-08
486 4 0.001 0.00880548 0 -0.0177455 1.2192e-08 0 -1.31887e-08 2.5577e-06 9.46672e-09
487 4 0.001 0.00924158 0 -0.0172829 9.1515e-09 0 -1.04189e-08 3.00979e-06 1.09102e-08
488 4 0.001 0.00965168 0 -0.0167973 5.69424e-09 0 -7.57315e-09 3.50146e-06 1.25414e-08
632 5 0.001 0.0110423 0 -0.0180535 1.22639e-08 0 -3.2397e-09 1.80599e-06 6.9857e-09
633 5 0.001 0.0114676 0 -0.0175806 1.00054e-08 0 -1.198e-09 2.08735e-06 7.77468e-09
634 5 0.001 0.011871 0 -0.017089 7.73455e-09 0 6.96503e-10 2.4054e-06 8.66203e-09
779 6 0.001 0.0134961 0 -0.0179694 -7.87913e-10 0 2.35519e-09 1.48499e-06 6.26013e-09
780 6 0.001 0.0138922 0 -0.0174717 -2.9318e-09 0 4.06401e-09 1.6673e-06 6.73751e-09
781 6 0.001 0.0142678 0 -0.0169583 -4.88479e-09 0 5.52011e-09 1.86995e-06 7.2856e-09
926 7 0.001 0.0156971 0 -0.0180321 -8.51714e-09 0 1.24019e-08 1.06797e-06 6.47383e-09
927 7 0.001 0.0160656 0 -0.0175136 -1.09782e-08 0 1.42758e-08 1.26109e-06 6.9775e-09
928 7 0.001 0.0164155 0 -0.0169825 -1.3503e-08 0 1.60481e-08 1.44569e-06 7.47262e-09
1074 8 0.001 0.0180946 0 -0.0178768 -2.13358e-08 0 1.13709e-08 3.93428e-07 4.19574e-09
1075 8 0.001 0.018399 0 -0.0173179 -2.24794e-08 0 1.20147e-08 5.50443e-07 4.48383e-09
1076 8 0.001 0.0186903 0 -0.0167522 -2.35762e-08 0 1.2598e-08 7.26128e-07 4.81754e-09
1223 9 0.001 0.0208826 0 -0.0176579 2.10264e-08 0 -1.86801e-09 1.38397e-07 3.87671e-09
1224 9 0.001 0.0210787 0 -0.0170524 1.86375e-08 0 -9.92567e-10 2.01972e-07 3.99115e-09
1372 10 0.001 0.0237603 0 -0.017861 1.36543e-09 0 2.24351e-10 2.71034e-08 2.73711e-09
1373 10 0.001 0.0238349 0 -0.0172288 -1.54515e-09 0 5.03076e-10 3.92688e-08 2.75539e-09
48 1 0.001 0.000624145 0 -0.0166575 2.78611e-08 0 1.16465e-08 9.35016e-06 3.44685e-08
49 1 0.001 0.00106891 0 -0.0162056 2.16167e-08 0 1.77777e-08 1.08095e-05 4.27133e-08
50 1 0.001 0.00146418 0 -0.0157104 1.43443e-08 0 2.35467e-08 1.22096e-05 5.14573e-08
51 1 0.001 0.00180222 0 -0.0151749 6.13308e-09 0 2.87194e-08 1.34927e-05 6.01891e-08
196 2 0.001 0.00450807 0 -0.0162075 1.6842e-08 0 -1.52372e-08 7.62533e-06 2.90465e-08
197 2 0.001 0.00487775 0 -0.015692 1.4494e-08 0 -1.36116e-08 8.58429e-06 3.39424e-08
342 3 0.001 0.00721156 0 -0.0165506 1.00788e-08 0 -2.19094e-08 5.02721e-06 1.88653e-08
343 3 0.001 0.00759476 0 -0.0160442 8.65092e-09 0 -2.08373e-08 5.74818e-06 2.18238e-08
344 3 0.001 0.00793846 0 -0.0155105 7.02902e-09 0 -1.98021e-08 6.45516e-06 2.49325e-08