ITEM: TIMESTEP
1900000
ITEM: NUMBER OF ATOMS
6
ITEM: BOX BOUNDS pp pp ff
-2.5000000000000000e-01 2.5000000000000000e-01
-2.5000000000000000e-01 2.5000000000000000e-01
-1.0000000000000001e-01 1.0000000000000001e-01
ITEM: ATOMS id type radius x y z fx fy fz c_bendingE c_stretchingE
1 1 0.015 0 0 -0.0368347 0 0 71.043 0 0.140197
2 1 0.015 0 0 -0.0189411 0 0 -82.8069 0 0.163682
3 1 0.015 0 0 -0.00571034 0 0 -34.5557 0 0.0235892
4 1 0.015 0 0 0.00450542 0 0 108.034 0 0.132876
5 1 0.015 0 0 0.0221872 0 0 -38.2579 0 0.148056
6 1 0.015 0 0 0.0347935 0 0 -23.4569 0 0.0152841
