ITEM: TIMESTEP
6800000
ITEM: NUMBER OF ATOMS
1500
ITEM: BOX BOUNDS ff ff ff
-2.5000000000000001e-02 2.5000000000000001e-02
-5.0000000000000001e-03 5.0000000000000001e-03
-5.0000000000000003e-02 5.0000000000000003e-02
ITEM: ATOMS id type radius x y z fx fy fz c_bendingE c_stretchingE
1 1 0.001 -0.0225 0 -0.03458 -0.217474 0 -3.8e-09 1.59802e-06 1.59293e-34
2 1 0.001 -0.0225 0 -0.0339424 0.214077 0 -0.0145265 3.2312e-06 9.00206e-09
3 1 0.001 -0.0224561 0 -0.0333088 3.22244e-11 0 -8.60402e-14 4.88445e-06 1.81645e-08
151 2 0.001 -0.0175 0 -0.03458 -0.253094 0 -3.8e-09 2.16529e-06 1.59293e-34
152 2 0.001 -0.0175 0 -0.0339424 0.251677 0 -0.0174175 4.33079e-06 1.2676e-08
153 2 0.001 -0.017449 0 -0.0333098 -9.28154e-12 0 5.046e-12 6.4726e-06 2.52715e-08
301 3 0.001 -0.0125 0 -0.03458 -0.274228 0 -3.8e-09 2.54273e-06 1.59293e-34
302 3 0.001 -0.0125 0 -0.0339424 0.274764 0 -0.0199335 5.04369e-06 1.62916e-08
303 3 0.001 -0.0124448 0 -0.0333105 -1.72857e-11 0 3.4193e-12 7.47235e-06 3.2142e-08
451 4 0.001 -0.0075 0 -0.03458 -0.275984 0 -3.8e-09 2.57546e-06 1.59293e-34
452 4 0.001 -0.0075 0 -0.0339424 0.278356 0 -0.0210987 5.07319e-06 1.79753e-08
453 4 0.001 -0.00744442 0 -0.0333107 -1.1479e-11 0 -2.70232e-12 7.46237e-06 3.51964e-08
601 5 0.001 -0.0025 0 -0.03458 -0.255833 0 -3.8e-09 2.21249e-06 1.59293e-34
602 5 0.001 -0.0025 0 -0.0339424 0.25981 0 -0.0202811 4.32932e-06 1.64231e-08
603 5 0.001 -0.00244846 0 -0.0333102 -2.33286e-11 0 -4.83927e-13 6.32693e-06 3.20165e-08
751 6 0.001 0.0025 0 -0.03458 -0.219208 0 -3.8e-09 1.62365e-06 1.59293e-34
752 6 0.001 0.0025 0 -0.0339424 0.225718 0 -0.0152791 3.13757e-06 9.07858e-09
753 6 0.001 0.00254422 0 -0.0333088 -1.99945e-11 0 3.0621e-12 4.53218e-06 1.75045e-08
901 7 0.001 0.0075 0 -0.03458 -0.161341 0 -3.8e-09 8.79069e-07 1.59293e-34
902 7 0.001 0.0075 0 -0.0339424 0.167306 0 -0.0116837 1.6883e-06 5.35928e-09
903 7 0.001 0.00753257 0 -0.0333076 -1.16818e-12 0 4.47224e-12 2.4251e-06 1.04062e-08
1051 8 0.001 0.0125 0 -0.03458 -0.108724 0 -3.8e-09 3.99051e-07 1.59293e-34
1052 8 0.001 0.0125 0 -0.0339424 0.113711 0 -0.00913234 7.60225e-07 3.32849e-09
1053 8 0.001 0.012522 0 -0.0333067 1.71263e-11 0 -9.1477e-12 1.08349e-06 6.52529e-09
1201 9 0.001 0.0175 0 -0.03458 -0.0810035 0 -3.8e-09 2.21478e-07 1.59293e-34
1202 9 0.001 0.0175 0 -0.0339424 0.085537 0 -0.00805801 4.17845e-07 2.61605e-09
1203 9 0.001 0.0175164 0 -0.0333064 2.46726e-11 0 7.37498e-13 5.89692e-07 5.15547e-09
1351 10 0.001 0.0225 0 -0.03458 -0.0608093 0 -3.8e-09 1.24805e-07 1.59293e-34
1352 10 0.001 0.0225 0 -0.0339424 0.0648547 0 -0.00742443 2.3304e-07 2.23934e-09
1353 10 0.001 0.0225123 0 -0.0333062 4.31639e-12 0 1.53176e-12 3.25422e-07 4.43226e-09
4 1 0.001 -0.0223681 0 -0.0326798 5.72815e-11 0 4.37249e-12 4.94423e-06 1.83968e-08
5 1 0.001 -0.0222362 0 -0.0320586 1.35984e-10 0 -1.40605e-11 4.95773e-06 1.84495e-08
154 2 0.001 -0.0173473 0 -0.0326833 2.37251e-11 0 5.9293e-12 6.40219e-06 2.49505e-08
155 2 0.001 -0.0171958 0 -0.0320669 5.81278e-12 0 1.62792e-11 6.26274e-06 2.43209e-08
304 3 0.001 -0.0123351 0 -0.0326857 -3.77868e-11 0 1.57907e-11 7.25779e-06 3.10442e-08
305 3 0.001 -0.0121727 0 -0.0320725 -8.19632e-11 0 2.91695e-11 6.95947e-06 2.95496e-08
454 4 0.001 -0.00733451 0 -0.0326861 -1.11503e-11 0 -2.59375e-13 7.14031e-06 3.34776e-08
455 4 0.001 -0.00717223 0 -0.0320729 -4.18226e-11 0 3.04866e-12 6.73731e-06 3.13877e-08
604 5 0.001 -0.00234684 0 -0.0326841 -4.67075e-11 0 1.0982e-11 5.9729e-06 3.0218e-08
605 5 0.001 -0.00219714 0 -0.0320675 -1.15356e-10 0 1.75049e-11 5.55957e-06 2.81841e-08
754 6 0.001 0.00263094 0 -0.0326796 -3.30973e-11 0 2.95643e-12 4.17694e-06 1.61793e-08
755 6 0.001 0.00275811 0 -0.0320571 -7.7985e-11 0 1.85339e-11 3.801e-06 1.48338e-08
904 7 0.001 0.00759632 0 -0.032675 -5.67779e-11 0 3.73785e-12 2.20898e-06 9.7825e-09
905 7 0.001 0.00768969 0 -0.0320461 -7.97588e-11 0 9.35838e-12 1.98855e-06 9.16626e-09
1054 8 0.001 0.0125648 0 -0.032672 6.29594e-11 0 -8.82663e-12 9.70212e-07 6.26525e-09
1055 8 0.001 0.0126273 0 -0.0320389 1.28214e-10 0 -2.46987e-11 8.58193e-07 6.01329e-09
1204 9 0.001 0.0175481 0 -0.0326709 1.1405e-10 0 8.79439e-13 5.1639e-07 5.00552e-09
1205 9 0.001 0.0175943 0 -0.0320362 1.81162e-10 0 -5.76149e-12 4.45618e-07 4.86285e-09
1354 10 0.001 0.022536 0 -0.0326702 -1.84175e-11 0 3.97601e-12 2.78011e-07 4.34216e-09
1355 10 0.001 0.0225703 0 -0.0320348 2.53794e-11 0 4.21999e-13 2.3319e-07 4.25782e-09
6 1 0.001 -0.0220608 0 -0.0314481 1.77929e-10 0 -1.64909e-11 4.92465e-06 1.83205e-08
7 1 0.001 -0.0218431 0 -0.0308515 2.88259e-10 0 -5.22215e-11 4.84576e-06 1.80148e-08
8 1 0.001 -0.0215844 0 -0.0302714 3.47126e-10 0 -7.39314e-11 4.72291e-06 1.7544e-08
156 2 0.001 -0.0169961 0 -0.0314644 1.9239e-11 0 1.11343e-11 6.05815e-06 2.34118e-08
157 2 0.001 -0.0167501 0 -0.0308792 2.45776e-11 0 1.94883e-11 5.79401e-06 2.22638e-08
158 2 0.001 -0.0164602 0 -0.0303143 1.92734e-11 0 2.55836e-11 5.47739e-06 2.09258e-08
306 3 0.001 -0.0119597 0 -0.0314748 -1.3397e-10 0 4.89139e-11 6.58664e-06 2.77337e-08
307 3 0.001 -0.0116989 0 -0.0308963 -1.91134e-10 0 7.99204e-11 6.15049e-06 2.56827e-08
308 3 0.001 -0.0113936 0 -0.0303398 -2.5109e-10 0 1.10242e-10 5.66361e-06 2.34864e-08
456 4 0.001 -0.00696018 0 -0.031475 -5.80365e-11 0 8.95239e-12 6.26614e-06 2.903e-08
457 4 0.001 -0.00670147 0 -0.0308956 -9.29474e-11 0 1.08746e-11 5.74112e-06 2.65115e-08
458 4 0.001 -0.00639959 0 -0.0303373 -1.27377e-10 0 3.74406e-11 5.17746e-06 2.39352e-08
606 5 0.001 -0.00200191 0 -0.0314637 -1.51397e-10 0 2.85956e-11 5.09904e-06 2.60017e-08
607 5 0.001 -0.00176406 0 -0.0308752 -2.39035e-10 0 6.7829e-11 4.60422e-06 2.37549e-08
608 5 0.001 -0.00148685 0 -0.0303041 -3.04785e-10 0 9.13009e-11 4.08828e-06 2.15207e-08
756 6 0.001 0.00292336 0 -0.0314436 -1.1837e-10 0 3.39528e-11 3.41234e-06 1.35043e-08
757 6 0.001 0.00312414 0 -0.0308406 -1.95215e-10 0 5.13048e-11 3.01876e-06 1.22217e-08
758 6 0.001 0.0033577 0 -0.0302494 -2.44172e-10 0 7.37714e-11 2.62773e-06 1.10107e-08
906 7 0.001 0.00781096 0 -0.0314219 -1.44692e-10 0 2.39913e-11 1.76727e-06 8.56781e-09
907 7 0.001 0.00795832 0 -0.0308033 -2.00534e-10 0 3.67795e-11 1.54845e-06 7.99588e-09
908 7 0.001 0.00812985 0 -0.0301909 -2.73205e-10 0 5.49855e-11 1.33521e-06 7.45757e-09
1056 8 0.001 0.0127084 0 -0.0314079 1.94358e-10 0 -2.99715e-11 7.48754e-07 5.77213e-09
1057 8 0.001 0.0128066 0 -0.0307793 2.91785e-10 0 -6.13038e-11 6.43152e-07 5.54411e-09
1206 9 0.001 0.0176538 0 -0.0314027 3.21497e-10 0 -1.84009e-11 3.781e-07 4.72867e-09
1207 9 0.001 0.0177256 0 -0.0307704 4.28865e-10 0 -3.18592e-11 3.14518e-07 4.60402e-09
1356 10 0.001 0.0226143 0 -0.0313999 5.86046e-12 0 7.14123e-12 1.91379e-07 4.1799e-09
1357 10 0.001 0.022667 0 -0.0307657 6.23214e-11 0 -2.40458e-13 1.52965e-07 4.10894e-09
9 1 0.001 -0.0212865 0 -0.0297104 4.38661e-10 0 -1.18876e-10 4.55895e-06 1.69253e-08
10 1 0.001 -0.0209514 0 -0.0291708 5.21304e-10 0 -1.6031e-10 4.35761e-06 1.61808e-08
159 2 0.001 -0.0161294 0 -0.0297723 1.66513e-11 0 3.51032e-11 5.11649e-06 1.94514e-08
160 2 0.001 -0.0157606 0 -0.0292552 2.93493e-12 0 5.12166e-11 4.72027e-06 1.78948e-08
161 2 0.001 -0.0153572 0 -0.0287646 -2.22127e-11 0 6.81656e-11 4.29817e-06 1.63082e-08
309 3 0.001 -0.0110472 0 -0.0298078 -3.15048e-10 0 1.55343e-10 5.1394e-06 2.12317e-08
310 3 0.001 -0.0106635 0 -0.0293018 -3.81769e-10 0 2.04685e-10 4.5915e-06 1.89971e-08
311 3 0.001 -0.0102464 0 -0.0288228 -4.37163e-10 0 2.56945e-10 4.03334e-06 1.68485e-08
459 4 0.001 -0.00605831 0 -0.029802 -1.60951e-10 0 5.73776e-11 4.5906e-06 2.1393e-08
460 4 0.001 -0.00568153 0 -0.0292909 -2.34337e-10 0 9.56572e-11 3.99561e-06 1.89616e-08
461 4 0.001 -0.00527318 0 -0.0288044 -2.68614e-10 0 1.27887e-10 3.40679e-06 1.66998e-08
609 5 0.001 -0.00117369 0 -0.0297517 -3.71726e-10 0 1.25825e-10 3.56421e-06 1.93643e-08
610 5 0.001 -0.00082812 0 -0.0292189 -4.70479e-10 0 1.81181e-10 3.04441e-06 1.7338e-08
611 5 0.001 -0.000453683 0 -0.0287057 -5.36804e-10 0 2.39015e-10 2.54036e-06 1.54802e-08
759 6 0.001 0.00362121 0 -0.0296709 -3.5073e-10 0 1.2266e-10 2.24621e-06 9.89017e-09
760 6 0.001 0.00391181 0 -0.0291054 -3.92482e-10 0 1.48512e-10 1.88056e-06 8.87263e-09
909 7 0.001 0.0083236 0 -0.029585 -3.39618e-10 0 7.65239e-11 1.13048e-06 6.95838e-09
910 7 0.001 0.00853755 0 -0.028986 -4.19469e-10 0 9.98985e-11 9.36927e-07 6.50234e-09
1058 8 0.001 0.0129207 0 -0.0301534 4.01994e-10 0 -7.6788e-11 5.42567e-07 5.33119e-09
1059 8 0.001 0.0130492 0 -0.0295303 5.22047e-10 0 -1.14661e-10 4.4809e-07 5.135e-09
1060 8 0.001 0.0131909 0 -0.02891 6.62508e-10 0 -1.51333e-10 3.60721e-07 4.95684e-09
1208 9 0.001 0.0178085 0 -0.0301395 5.95597e-10 0 -5.18374e-11 2.55496e-07 4.4898e-09
1209 9 0.001 0.0179015 0 -0.02951 7.56731e-10 0 -7.36342e-11 2.01607e-07 4.38677e-09
1210 9 0.001 0.0180033 0 -0.0288818 9.22779e-10 0 -9.80289e-11 1.53362e-07 4.29554e-09
1358 10 0.001 0.0227275 0 -0.0301321 9.02832e-11 0 5.01875e-12 1.18299e-07 4.04543e-09
1359 10 0.001 0.0227948 0 -0.0294993 1.44638e-10 0 -3.40654e-12 8.76934e-08 3.98976e-09
1360 10 0.001 0.022868 0 -0.0288671 2.0866e-10 0 -4.67358e-12 6.14223e-08 3.94229e-09
11 1 0.001 -0.0205814 0 -0.0286543 6.00943e-10 0 -2.11555e-10 4.12336e-06 1.53357e-08
12 1 0.001 -0.020179 0 -0.0281626 6.76644e-10 0 -2.6936e-10 3.86126e-06 1.44171e-08
13 1 0.001 -0.0197469 0 -0.0276968 7.37575e-10 0 -3.21321e-10 3.57676e-06 1.34521e-08
14 1 0.001 -0.0192876 0 -0.0272575 7.93686e-10 0 -3.68254e-10 3.27558e-06 1.2467e-08
162 2 0.001 -0.0149224 0 -0.0283013 -3.40971e-11 0 9.95193e-11 3.85972e-06 1.47382e-08
163 2 0.001 -0.0144597 0 -0.0278659 -6.29912e-11 0 1.37273e-10 3.41428e-06 1.32247e-08
164 2 0.001 -0.0139723 0 -0.027458 -9.43173e-11 0 1.76901e-10 2.97077e-06 1.17992e-08
312 3 0.001 -0.0097997 0 -0.0283711 -5.03661e-10 0 3.2403e-10 3.47767e-06 1.48376e-08
313 3 0.001 -0.00932711 0 -0.0279463 -5.47143e-10 0 3.72877e-10 2.93629e-06 1.30015e-08
314 3 0.001 -0.00883216 0 -0.0275476 -6.02187e-10 0 4.4215e-10 2.41985e-06 1.13629e-08
315 3 0.001 -0.00831818 0 -0.0271735 -6.45829e-10 0 4.88835e-10 1.93766e-06 9.93253e-09
462 4 0.001 -0.00483711 0 -0.0283424 -3.44053e-10 0 1.94494e-10 2.83721e-06 1.46487e-08
463 4 0.001 -0.00437704 0 -0.027904 -3.99069e-10 0 2.37604e-10 2.29861e-06 1.28327e-08
464 4 0.001 -0.00389648 0 -0.027488 -4.63512e-10 0 3.10895e-10 1.80118e-06 1.12621e-08
612 5 0.001 -5.38734e-05 0 -0.0282119 -6.22142e-10 0 2.90001e-10 2.06247e-06 1.38159e-08
613 5 0.001 0.000367922 0 -0.0277365 -7.0134e-10 0 3.55177e-10 1.6199e-06 1.2359e-08
614 5 0.001 0.000808463 0 -0.0272783 -7.72646e-10 0 4.1815e-10 1.22055e-06 1.1114e-08
761 6 0.001 0.0042266 0 -0.0285528 -5.05326e-10 0 2.00221e-10 1.53646e-06 7.9655e-09
762 6 0.001 0.00456275 0 -0.0280129 -5.74618e-10 0 2.53212e-10 1.21892e-06 7.17175e-09
763 6 0.001 0.00491747 0 -0.0274849 -6.68762e-10 0 3.03234e-10 9.32242e-07 6.49086e-09
911 7 0.001 0.00876967 0 -0.0283937 -4.85069e-10 0 1.25194e-10 7.56964e-07 6.09219e-09
912 7 0.001 0.00901793 0 -0.027808 -5.67928e-10 0 1.53695e-10 5.92738e-07 5.72955e-09
913 7 0.001 0.00928029 0 -0.0272284 -6.31252e-10 0 1.81273e-10 4.46122e-07 5.4152e-09
1061 8 0.001 0.0133443 0 -0.0282924 8.14394e-10 0 -1.92294e-10 2.8136e-07 4.79774e-09
1062 8 0.001 0.0135079 0 -0.0276775 9.85925e-10 0 -2.42493e-10 2.10805e-07 4.65847e-09
1211 9 0.001 0.0181128 0 -0.0282549 1.1142e-09 0 -1.33088e-10 1.11213e-07 4.21663e-09
1212 9 0.001 0.0182289 0 -0.0276291 1.30091e-09 0 -1.76133e-10 7.55501e-08 4.15043e-09
1361 10 0.001 0.022946 0 -0.0282354 2.75295e-10 0 -8.22215e-12 3.9718e-08 3.90328e-09
1362 10 0.001 0.023028 0 -0.0276043 3.30817e-10 0 -1.00878e-11 2.27709e-08 3.87296e-09
15 1 0.001 -0.0188039 0 -0.0268452 8.46081e-10 0 -4.14697e-10 2.96348e-06 1.14858e-08
16 1 0.001 -0.0182985 0 -0.0264597 8.76805e-10 0 -4.56727e-10 2.64618e-06 1.05296e-08
17 1 0.001 -0.0177738 0 -0.0261006 9.03159e-10 0 -4.81637e-10 2.32919e-06 9.61574e-09
18 1 0.001 -0.0172325 0 -0.0257671 9.21307e-10 0 -4.98192e-10 2.01772e-06 8.75824e-09
165 2 0.001 -0.0134633 0 -0.0270772 -1.23202e-10 0 2.2015e-10 2.53749e-06 1.04851e-08
166 2 0.001 -0.0129358 0 -0.0267223 -1.42498e-10 0 2.56019e-10 2.12201e-06 9.29791e-09
167 2 0.001 -0.0123924 0 -0.026392 -1.71056e-10 0 3.16215e-10 1.73106e-06 8.24588e-09
168 2 0.001 -0.0118358 0 -0.0260844 -1.95984e-10 0 3.58677e-10 1.3705e-06 7.33156e-09
169 2 0.001 -0.0112682 0 -0.0257974 -2.08229e-10 0 4.08671e-10 1.04536e-06 6.55303e-09
316 3 0.001 -0.00778821 0 -0.0268222 -6.70389e-10 0 5.40215e-10 1.49776e-06 8.71137e-09
317 3 0.001 -0.00724505 0 -0.0264914 -7.06843e-10 0 5.90131e-10 1.10683e-06 7.69326e-09
318 3 0.001 -0.00669121 0 -0.0261787 -7.3534e-10 0 6.36512e-10 7.7038e-07 6.86752e-09
319 3 0.001 -0.00612896 0 -0.0258812 -7.49459e-10 0 6.71351e-10 4.92783e-07 6.22004e-09
465 4 0.001 -0.00339872 0 -0.0270926 -5.19635e-10 0 3.70891e-10 1.35357e-06 9.93631e-09
466 4 0.001 -0.00288679 0 -0.0267155 -5.79234e-10 0 4.42851e-10 9.62977e-07 8.84704e-09
467 4 0.001 -0.00236347 0 -0.0263542 -6.32915e-10 0 5.18111e-10 6.35163e-07 7.98151e-09
468 4 0.001 -0.00183132 0 -0.026006 -7.0344e-10 0 6.03833e-10 3.74786e-07 7.32049e-09
615 5 0.001 0.00126467 0 -0.0268356 -8.42339e-10 0 4.84664e-10 8.71045e-07 1.00784e-08
616 5 0.001 0.00173366 0 -0.0264063 -9.0011e-10 0 5.35107e-10 5.76798e-07 9.24579e-09
617 5 0.001 0.00221267 0 -0.0259881 -9.6021e-10 0 6.01548e-10 3.42093e-07 8.60729e-09
764 6 0.001 0.00528806 0 -0.0269679 -7.36956e-10 0 3.63733e-10 6.8005e-07 5.9199e-09
765 6 0.001 0.0056719 0 -0.0264605 -8.28329e-10 0 4.24436e-10 4.65335e-07 5.45446e-09
766 6 0.001 0.00606645 0 -0.0259613 -8.97134e-10 0 4.69237e-10 2.90498e-07 5.0895e-09
914 7 0.001 0.00955475 0 -0.0266544 -7.04836e-10 0 2.14982e-10 3.18723e-07 5.14924e-09
915 7 0.001 0.00983929 0 -0.0260852 -7.73195e-10 0 2.39258e-10 2.11883e-07 4.93135e-09
1063 8 0.001 0.0136804 0 -0.027065 1.14663e-09 0 -2.97596e-10 1.4975e-07 4.53961e-09
1064 8 0.001 0.0138603 0 -0.0264545 1.33161e-09 0 -3.53539e-10 9.87843e-08 4.44156e-09
1065 8 0.001 0.0140461 0 -0.0258459 1.50186e-09 0 -4.17894e-10 5.83897e-08 4.36461e-09
1213 9 0.001 0.0183503 0 -0.0270044 1.50295e-09 0 -2.00501e-10 4.66967e-08 4.09725e-09
1214 9 0.001 0.0184759 0 -0.0263805 1.70883e-09 0 -2.54384e-10 2.49134e-08 4.05733e-09
1215 9 0.001 0.0186044 0 -0.0257572 1.90547e-09 0 -2.93672e-10 1.03948e-08 4.03083e-09
1363 10 0.001 0.0231128 0 -0.0269735 3.94075e-10 0 -2.15302e-11 1.07289e-08 3.85148e-09
1364 10 0.001 0.0231996 0 -0.026343 4.26024e-10 0 -2.12819e-11 3.6963e-09 3.83896e-09
1365 10 0.001 0.0232872 0 -0.0257126 4.48011e-10 0 -2.41552e-11 1.73402e-09 3.83547e-09
19 1 0.001 -0.0166766 0 -0.0254582 9.34777e-10 0 -5.07257e-10 1.71659e-06 7.96732e-09
20 1 0.001 -0.0161085 0 -0.0251724 9.32742e-10 0 -4.9775e-10 1.43021e-06 7.24983e-09
21 1 0.001 -0.0155298 0 -0.0249082 9.2288e-10 0 -4.57732e-10 1.16251e-06 6.60975e-09
22 1 0.001 -0.0149425 0 -0.0246638 9.1402e-10 0 -4.18075e-10 9.16945e-07 6.04859e-09
23 1 0.001 -0.0143481 0 -0.0244371 9.0247e-10 0 -3.6191e-10 6.9651e-07 5.56602e-09
24 1 0.001 -0.0137479 0 -0.024226 8.70742e-10 0 -2.72393e-10 5.03732e-07 5.16042e-09
170 2 0.001 -0.0106915 0 -0.0255287 -2.35096e-10 0 4.65436e-10 7.5982e-07 5.90529e-09
171 2 0.001 -0.0101077 0 -0.0252758 -2.50373e-10 0 5.1804e-10 5.17307e-07 5.38155e-09
172 2 0.001 -0.00951835 0 -0.0250361 -2.7324e-10 0 5.6654e-10 3.20654e-07 4.97233e-09
173 2 0.001 -0.00892485 0 -0.0248066 -2.86739e-10 0 6.10402e-10 1.72164e-07 4.66444e-09
174 2 0.001 -0.00832851 0 -0.0245845 -3.02419e-10 0 6.81983e-10 7.30803e-08 4.44189e-09
175 2 0.001 -0.0077305 0 -0.0243668 -3.22268e-10 0 7.32998e-10 2.24433e-08 4.30187e-09
176 2 0.001 -0.00713189 0 -0.0241508 -3.35572e-10 0 7.71923e-10 1.60983e-08 4.25045e-09
320 3 0.001 -0.00556033 0 -0.0255959 -7.83356e-10 0 7.25803e-10 2.77943e-07 5.72231e-09
321 3 0.001 -0.00498717 0 -0.0253197 -7.9226e-10 0 7.47485e-10 1.28233e-07 5.35259e-09
322 3 0.001 -0.00441116 0 -0.0250494 -8.10992e-10 0 7.97689e-10 4.3055e-08 5.10736e-09
323 3 0.001 -0.00383386 0 -0.0247819 -8.3582e-10 0 8.27081e-10 1.72448e-08 4.97901e-09
324 3 0.001 -0.00325667 0 -0.024514 -8.42531e-10 0 8.54002e-10 4.16225e-08 4.96293e-09
325 3 0.001 -0.00268093 0 -0.0242431 -8.64014e-10 0 8.94963e-10 1.04623e-07 5.04866e-09
469 4 0.001 -0.0012927 0 -0.0256676 -7.37026e-10 0 6.68937e-10 1.854e-07 6.83852e-09
470 4 0.001 -0.000749799 0 -0.0253362 -8.0514e-10 0 7.53023e-10 6.86329e-08 6.52166e-09
471 4 0.001 -0.000204686 0 -0.0250083 -8.48921e-10 0 8.24347e-10 2.25014e-08 6.36801e-09
472 4 0.001 0.000340703 0 -0.0246808 -8.96135e-10 0 9.00833e-10 4.03317e-08 6.37128e-09
473 4 0.001 0.000884532 0 -0.0243508 -9.3797e-10 0 9.54794e-10 1.11265e-07 6.51684e-09
618 5 0.001 0.00269913 0 -0.0255786 -1.00725e-09 0 6.52507e-10 1.7016e-07 8.15401e-09
619 5 0.001 0.00319055 0 -0.0251749 -1.0491e-09 0 7.03573e-10 6.32769e-08 7.87539e-09
620 5 0.001 0.00368457 0 -0.0247744 -1.08811e-09 0 7.531e-10 2.22016e-08 7.74715e-09
621 5 0.001 0.00417885 0 -0.0243742 -1.13641e-09 0 8.06942e-10 4.51423e-08 7.7485e-09
767 6 0.001 0.00646925 0 -0.0254687 -9.64484e-10 0 5.39825e-10 1.57389e-07 4.82009e-09
768 6 0.001 0.00687792 0 -0.024981 -1.03338e-09 0 5.79091e-10 6.73599e-08 4.64201e-09
769 6 0.001 0.00729013 0 -0.0244962 -1.09364e-09 0 6.34868e-10 2.12926e-08 4.55218e-09
916 7 0.001 0.0101319 0 -0.0255202 -8.35786e-10 0 2.72922e-10 1.26694e-07 4.76099e-09
917 7 0.001 0.0104307 0 -0.0249584 -9.00041e-10 0 2.97617e-10 6.39988e-08 4.63753e-09
918 7 0.001 0.0107337 0 -0.0243988 -9.73638e-10 0 3.33574e-10 2.44065e-08 4.56039e-09
1066 8 0.001 0.0142364 0 -0.0252386 1.69995e-09 0 -4.81612e-10 2.89441e-08 4.30894e-09
1067 8 0.001 0.0144297 0 -0.0246323 1.86502e-09 0 -5.3946e-10 1.07194e-08 4.27466e-09
1216 9 0.001 0.0187347 0 -0.0251342 2.13515e-09 0 -3.46307e-10 3.27006e-09 4.01785e-09
1217 9 0.001 0.0188655 0 -0.0245114 2.33383e-09 0 -3.92054e-10 3.60216e-09 4.01845e-09
1366 10 0.001 0.0233748 0 -0.0250822 4.76248e-10 0 -2.28308e-11 4.85899e-09 3.84102e-09
1367 10 0.001 0.0234612 0 -0.0244516 4.32656e-10 0 -1.0067e-11 1.30442e-08 3.85559e-09
25 1 0.001 -0.0131431 0 -0.0240283 8.46838e-10 0 -1.72233e-10 3.40706e-07 4.82936e-09
26 1 0.001 -0.0125348 0 -0.0238416 8.26407e-10 0 -8.46163e-11 2.09118e-07 4.57013e-09
27 1 0.001 -0.0119239 0 -0.0236634 7.91613e-10 0 5.11409e-11 1.1027e-07 4.38009e-09
28 1 0.001 -0.0113112 0 -0.0234913 7.62629e-10 0 1.76245e-10 4.51083e-08 4.25701e-09
29 1 0.001 -0.0106975 0 -0.0233227 7.3199e-10 0 3.09723e-10 1.42404e-08 4.19932e-09
30 1 0.001 -0.0100836 0 -0.0231552 6.97161e-10 0 4.55558e-10 1.80101e-08 4.20565e-09
31 1 0.001 -0.00947004 0 -0.0229861 6.65385e-10 0 5.8525e-10 5.70075e-08 4.26651e-09
32 1 0.001 -0.00885767 0 -0.0228128 6.30255e-10 0 7.25627e-10 1.33005e-07 4.36666e-09
33 1 0.001 -0.00824725 0 -0.022633 5.98331e-10 0 8.25949e-10 2.50086e-07 4.5204e-09
177 2 0.001 -0.00653368 0 -0.0239337 -3.57164e-10 0 8.41286e-10 4.70721e-08 4.27252e-09
178 2 0.001 -0.00593682 0 -0.0237129 -3.5868e-10 0 8.72865e-10 1.07668e-07 4.35693e-09
179 2 0.001 -0.00534221 0 -0.0234861 -3.87509e-10 0 9.34234e-10 1.92031e-07 4.51316e-09
180 2 0.001 -0.00475076 0 -0.0232514 -3.90492e-10 0 9.56643e-10 2.98068e-07 4.73959e-09
181 2 0.001 -0.00416343 0 -0.0230066 -4.0746e-10 0 1.00853e-09 4.27766e-07 5.0209e-09
182 2 0.001 -0.00358125 0 -0.0227498 -4.12524e-10 0 1.01366e-09 5.87019e-07 5.36412e-09
326 3 0.001 -0.00210788 0 -0.0239666 -8.7865e-10 0 9.19451e-10 1.94957e-07 5.19417e-09
327 3 0.001 -0.00153869 0 -0.0236822 -8.97242e-10 0 9.56547e-10 3.04071e-07 5.36127e-09
328 3 0.001 -0.000974528 0 -0.0233881 -9.10456e-10 0 9.85269e-10 4.27947e-07 5.56234e-09
329 3 0.001 -0.000416545 0 -0.0230824 -9.30853e-10 0 1.00279e-09 5.67177e-07 5.83568e-09
330 3 0.001 0.000134024 0 -0.0227637 -9.37129e-10 0 1.04761e-09 7.26292e-07 6.21261e-09
474 4 0.001 0.00142506 0 -0.0240155 -9.79055e-10 0 1.02243e-09 2.22154e-07 6.7827e-09
475 4 0.001 0.0019606 0 -0.0236723 -1.02266e-09 0 1.08401e-09 3.59995e-07 7.13559e-09
476 4 0.001 0.00248956 0 -0.0233191 -1.05263e-09 0 1.12719e-09 5.1415e-07 7.53344e-09
477 4 0.001 0.00301038 0 -0.0229541 -1.08869e-09 0 1.16547e-09 6.78286e-07 7.9396e-09
622 5 0.001 0.00467111 0 -0.0239715 -1.16798e-09 0 8.54421e-10 1.26832e-07 7.89042e-09
623 5 0.001 0.00515911 0 -0.0235637 -1.2164e-09 0 9.04321e-10 2.58637e-07 8.18555e-09
624 5 0.001 0.00564065 0 -0.0231484 -1.24214e-09 0 9.46897e-10 4.29661e-07 8.62389e-09
625 5 0.001 0.00611356 0 -0.0227233 -1.27962e-09 0 9.83336e-10 6.28174e-07 9.1844e-09
770 6 0.001 0.00770356 0 -0.0240124 -1.14815e-09 0 6.7471e-10 1.96299e-08 4.54895e-09
771 6 0.001 0.00811594 0 -0.0235278 -1.20293e-09 0 7.22296e-10 6.23378e-08 4.63252e-09
772 6 0.001 0.00852496 0 -0.0230403 -1.2497e-09 0 7.49227e-10 1.48443e-07 4.80108e-09
919 7 0.001 0.011039 0 -0.0238405 -1.02412e-09 0 3.50192e-10 8.29485e-09 4.52918e-09
920 7 0.001 0.0113446 0 -0.0232823 -1.08823e-09 0 3.74026e-10 1.58162e-08 4.54373e-09
921 7 0.001 0.0116487 0 -0.0227233 -1.12989e-09 0 3.97828e-10 4.68996e-08 4.60412e-09
1068 8 0.001 0.0146246 0 -0.0240265 2.06463e-09 0 -6.06132e-10 3.88263e-09 4.26184e-09
1069 8 0.001 0.0148197 0 -0.0234207 2.24996e-09 0 -6.7266e-10 8.49622e-09 4.27048e-09
1070 8 0.001 0.0150135 0 -0.0228146 2.41755e-09 0 -7.23548e-10 2.45181e-08 4.30059e-09
1218 9 0.001 0.0189956 0 -0.0238884 2.56124e-09 0 -4.4233e-10 1.13882e-08 4.03262e-09
1219 9 0.001 0.0191239 0 -0.0232651 2.76064e-09 0 -4.8853e-10 2.65593e-08 4.06031e-09
1220 9 0.001 0.0192492 0 -0.0226411 2.97735e-09 0 -5.3779e-10 4.89805e-08 4.10141e-09
1368 10 0.001 0.0235454 0 -0.0238208 3.9579e-10 0 -3.29645e-12 2.62189e-08 3.87909e-09
1369 10 0.001 0.0236266 0 -0.0231895 2.98377e-10 0 1.64243e-11 4.42685e-08 3.91141e-09
34 1 0.001 -0.00763968 0 -0.0224438 5.72087e-10 0 9.45377e-10 4.15181e-07 4.77053e-09
35 1 0.001 -0.00703602 0 -0.0222426 5.41544e-10 0 1.03041e-09 6.37742e-07 5.16311e-09
36 1 0.001 -0.00643758 0 -0.0220265 5.25063e-10 0 1.11545e-09 9.28539e-07 5.74966e-09
37 1 0.001 -0.00584596 0 -0.0217927 4.96252e-10 0 1.17045e-09 1.29777e-06 6.58574e-09
38 1 0.001 -0.00526314 0 -0.021538 4.83671e-10 0 1.207e-09 1.75261e-06 7.72374e-09
39 1 0.001 -0.00469148 0 -0.0212594 4.67074e-10 0 1.25103e-09 2.29468e-06 9.20548e-09
183 2 0.001 -0.00300541 0 -0.0224793 -4.26237e-10 0 1.06416e-09 7.85074e-07 5.80851e-09
184 2 0.001 -0.00243734 0 -0.0221929 -4.27389e-10 0 1.05826e-09 1.03307e-06 6.39605e-09
185 2 0.001 -0.00187872 0 -0.0218887 -4.38248e-10 0 1.09038e-09 1.34138e-06 7.17365e-09
186 2 0.001 -0.00133156 0 -0.0215645 -4.34588e-10 0 1.086e-09 1.71662e-06 8.19373e-09
187 2 0.001 -0.000798284 0 -0.0212182 -4.30521e-10 0 1.07321e-09 2.15971e-06 9.48364e-09
331 3 0.001 0.000675833 0 -0.0224304 -9.63026e-10 0 1.06181e-09 9.12265e-07 6.69951e-09
332 3 0.001 0.00120737 0 -0.022081 -9.65531e-10 0 1.07218e-09 1.13316e-06 7.29339e-09
333 3 0.001 0.00172689 0 -0.0217142 -9.80134e-10 0 1.09926e-09 1.3969e-06 8.01431e-09
334 3 0.001 0.00223238 0 -0.0213284 -9.77801e-10 0 1.08641e-09 1.70923e-06 8.90159e-09
478 4 0.001 0.00352152 0 -0.0225758 -1.11228e-09 0 1.20748e-09 8.50812e-07 8.35159e-09
479 4 0.001 0.00402142 0 -0.0221828 -1.14136e-09 0 1.23222e-09 1.03424e-06 8.8032e-09
480 4 0.001 0.00450845 0 -0.021774 -1.15765e-09 0 1.25441e-09 1.23369e-06 9.3343e-09
481 4 0.001 0.00498085 0 -0.0213484 -1.17809e-09 0 1.27598e-09 1.45538e-06 9.9723e-09
626 5 0.001 0.00657568 0 -0.0222866 -1.31475e-09 0 1.02294e-09 8.43049e-07 9.83791e-09
627 5 0.001 0.00702493 0 -0.0218368 -1.33457e-09 0 1.03818e-09 1.06523e-06 1.05358e-08
628 5 0.001 0.00745924 0 -0.0213726 -1.36457e-09 0 1.0741e-09 1.28862e-06 1.12335e-08
773 6 0.001 0.00892828 0 -0.0225482 -1.29733e-09 0 7.95325e-10 2.75435e-07 5.04667e-09
774 6 0.001 0.00932357 0 -0.0220496 -1.34034e-09 0 8.25596e-10 4.38913e-07 5.36434e-09
775 6 0.001 0.00970844 0 -0.0215429 -1.38318e-09 0 8.57408e-10 6.32669e-07 5.76403e-09
922 7 0.001 0.0119492 0 -0.0221624 -1.17502e-09 0 4.13358e-10 1.01249e-07 4.71067e-09
923 7 0.001 0.0122444 0 -0.0215986 -1.22593e-09 0 4.30479e-10 1.78342e-07 4.86389e-09
1071 8 0.001 0.0152045 0 -0.0222075 2.60179e-09 0 -7.91847e-10 5.18015e-08 4.3521e-09
1072 8 0.001 0.0153913 0 -0.0215992 2.73647e-09 0 -8.32777e-10 9.0095e-08 4.42492e-09
1221 9 0.001 0.0193701 0 -0.0220163 3.17069e-09 0 -5.76552e-10 7.84513e-08 4.15575e-09
1222 9 0.001 0.0194857 0 -0.0213904 3.36255e-09 0 -6.15453e-10 1.14706e-07 4.22309e-09
1370 10 0.001 0.0237036 0 -0.0225578 1.87884e-10 0 2.8424e-11 6.70356e-08 3.95236e-09
1371 10 0.001 0.0237756 0 -0.0219254 3.71181e-11 0 5.59673e-11 9.43199e-08 4.00173e-09
1372 10 0.001 0.0238414 0 -0.0212924 -1.44193e-10 0 6.98181e-11 1.2588e-07 4.05921e-09
40 1 0.001 -0.00413384 0 -0.0209541 4.73166e-10 0 1.23588e-09 2.91841e-06 1.10723e-08
41 1 0.001 -0.00359354 0 -0.0206194 4.69595e-10 0 1.24525e-09 3.61023e-06 1.33217e-08
42 1 0.001 -0.0030744 0 -0.020253 4.91325e-10 0 1.20922e-09 4.35181e-06 1.59159e-08
43 1 0.001 -0.0025806 0 -0.0198535 5.12649e-10 0 1.17954e-09 5.12332e-06 1.8839e-08
188 2 0.001 -0.00028166 0 -0.0208477 -4.26673e-10 0 1.07437e-09 2.66487e-06 1.10344e-08
189 2 0.001 0.000215148 0 -0.0204512 -4.04435e-10 0 1.0395e-09 3.22018e-06 1.28328e-08
190 2 0.001 0.00068864 0 -0.0200274 -3.8053e-10 0 1.02334e-09 3.80963e-06 1.48533e-08
335 3 0.001 0.00272155 0 -0.0209222 -9.78883e-10 0 1.09697e-09 2.07213e-06 9.99979e-09
336 3 0.001 0.00319175 0 -0.0204944 -9.68831e-10 0 1.07666e-09 2.48248e-06 1.13228e-08
337 3 0.001 0.00364007 0 -0.0200438 -9.37753e-10 0 1.04986e-09 2.93222e-06 1.28383e-08
482 4 0.001 0.00543672 0 -0.0209053 -1.18919e-09 0 1.27942e-09 1.70484e-06 1.07165e-08
483 4 0.001 0.00587396 0 -0.0204439 -1.1937e-09 0 1.284e-09 1.98585e-06 1.15748e-08
484 4 0.001 0.00629026 0 -0.0199637 -1.2017e-09 0 1.28957e-09 2.29923e-06 1.25834e-08
629 5 0.001 0.0078766 0 -0.0208932 -1.3715e-09 0 1.08009e-09 1.51084e-06 1.1914e-08
630 5 0.001 0.00827502 0 -0.020398 -1.38996e-09 0 1.09658e-09 1.73267e-06 1.2587e-08
631 5 0.001 0.00865249 0 -0.0198868 -1.38721e-09 0 1.09975e-09 1.957e-06 1.32835e-08
776 6 0.001 0.0100805 0 -0.0210269 -1.40537e-09 0 8.71869e-10 8.49244e-07 6.25235e-09
777 6 0.001 0.0104374 0 -0.0205004 -1.43617e-09 0 8.96534e-10 1.08044e-06 6.81216e-09
778 6 0.001 0.0107769 0 -0.0199625 -1.45186e-09 0 9.03257e-10 1.31801e-06 7.41268e-09
924 7 0.001 0.0125321 0 -0.0210311 -1.25549e-09 0 4.35405e-10 2.7742e-07 5.06441e-09
925 7 0.001 0.0128104 0 -0.0204589 -1.28276e-09 0 4.50144e-10 3.97482e-07 5.31281e-09
926 7 0.001 0.0130774 0 -0.0198814 -1.31945e-09 0 4.65633e-10 5.37132e-07 5.60694e-09
1073 8 0.001 0.0155724 0 -0.0209891 2.8892e-09 0 -8.88894e-10 1.39042e-07 4.51888e-09
1074 8 0.001 0.0157464 0 -0.020377 3.00573e-09 0 -9.26743e-10 1.98179e-07 4.63371e-09
1075 8 0.001 0.0159119 0 -0.0197626 3.09651e-09 0 -9.62749e-10 2.6694e-07 4.76905e-09
1223 9 0.001 0.0195946 0 -0.0207634 3.54104e-09 0 -6.52726e-10 1.57414e-07 4.30311e-09
1224 9 0.001 0.0196956 0 -0.0201351 3.70709e-09 0 -6.73235e-10 2.0618e-07 4.3954e-09
1373 10 0.001 0.0239002 0 -0.0206587 -3.72106e-10 0 1.02539e-10 1.61432e-07 4.12446e-09
1374 10 0.001 0.023951 0 -0.0200243 -6.36549e-10 0 1.29804e-10 2.00655e-07 4.19704e-09
44 1 0.001 -0.00211674 0 -0.0194199 5.49868e-10 0 1.13928e-09 5.90547e-06 2.20543e-08
45 1 0.001 -0.00168762 0 -0.0189521 5.9186e-10 0 1.08863e-09 6.67846e-06 2.54811e-08
46 1 0.001 -0.0012982 0 -0.0184511 6.659e-10 0 1.03789e-09 7.42095e-06 2.90063e-08
191 2 0.001 0.00113505 0 -0.0195754 -3.42747e-10 0 9.78198e-10 4.41693e-06 1.70624e-08
192 2 0.001 0.0015504 0 -0.0190949 -2.98172e-10 0 9.45101e-10 5.02671e-06 1.94304e-08
193 2 0.001 0.00193063 0 -0.0185864 -2.45228e-10 0 9.05944e-10 5.62449e-06 2.19014e-08
338 3 0.001 0.00406336 0 -0.0195699 -9.19525e-10 0 1.03718e-09 3.40909e-06 1.44933e-08
339 3 0.001 0.00445826 0 -0.0190722 -8.61919e-10 0 9.91783e-10 3.89871e-06 1.62562e-08
340 3 0.001 0.00482131 0 -0.018551 -8.15059e-10 0 9.6064e-10 4.38706e-06 1.81013e-08
485 4 0.001 0.0066831 0 -0.0194641 -1.19894e-09 0 1.28193e-09 2.64271e-06 1.37671e-08
486 4 0.001 0.00704978 0 -0.0189452 -1.1878e-09 0 1.27011e-09 3.01052e-06 1.51125e-08
487 4 0.001 0.00738748 0 -0.0184071 -1.18108e-09 0 1.26278e-09 3.39385e-06 1.65681e-08
632 5 0.001 0.00900701 0 -0.0193594 -1.38957e-09 0 1.1051e-09 2.18703e-06 1.40293e-08
633 5 0.001 0.00933652 0 -0.0188161 -1.38165e-09 0 1.10744e-09 2.42473e-06 1.48339e-08
634 5 0.001 0.00963892 0 -0.0182574 -1.36952e-09 0 1.10186e-09 2.67049e-06 1.57129e-08
779 6 0.001 0.0110966 0 -0.0194127 -1.46983e-09 0 9.15723e-10 1.55433e-06 8.02627e-09
780 6 0.001 0.0113943 0 -0.0188508 -1.45597e-09 0 9.15795e-10 1.78328e-06 8.6344e-09
781 6 0.001 0.0116681 0 -0.0182769 -1.45937e-09 0 9.06865e-10 2.00138e-06 9.22325e-09
927 7 0.001 0.013331 0 -0.019298 -1.33896e-09 0 4.72444e-10 6.94357e-07 5.9418e-09
928 7 0.001 0.0135693 0 -0.0187081 -1.36377e-09 0 4.8426e-10 8.66166e-07 6.31823e-09
929 7 0.001 0.0137901 0 -0.0181116 -1.36047e-09 0 4.87453e-10 1.04867e-06 6.7365e-09
1076 8 0.001 0.0160674 0 -0.0191456 3.1813e-09 0 -9.93223e-10 3.4465e-07 4.92434e-09
1077 8 0.001 0.0162114 0 -0.0185258 3.23879e-09 0 -1.01638e-09 4.30531e-07 5.09886e-09
1225 9 0.001 0.0197878 0 -0.0195055 3.847e-09 0 -7.01548e-10 2.60548e-07 4.49944e-09
1226 9 0.001 0.0198697 0 -0.0188744 3.97714e-09 0 -7.13874e-10 3.2e-07 4.61461e-09
1227 9 0.001 0.0199405 0 -0.018242 4.07894e-09 0 -7.28043e-10 3.8396e-07 4.74014e-09
1375 10 0.001 0.0239928 0 -0.0193893 -9.06816e-10 0 1.56829e-10 2.4319e-07 4.27648e-09
1376 10 0.001 0.0240248 0 -0.0187537 -1.23523e-09 0 1.71598e-10 2.88749e-07 4.36162e-09
1377 10 0.001 0.024046 0 -0.0181177 -1.55327e-09 0 2.03253e-10 3.37212e-07 4.45206e-09
47 1 0.001 -0.000953425 0 -0.0179185 7.23279e-10 0 9.8783e-10 8.11082e-06 3.24869e-08
48 1 0.001 -0.000658018 0 -0.0173573 8.06304e-10 0 9.4882e-10 8.72608e-06 3.57581e-08
49 1 0.001 -0.000416322 0 -0.0167711 8.97923e-10 0 9.04495e-10 9.24595e-06 3.86449e-08
194 2 0.001 0.00227164 0 -0.018051 -1.81116e-10 0 8.5397e-10 6.19519e-06 2.43987e-08
195 2 0.001 0.00256944 0 -0.0174905 -9.17909e-11 0 8.15124e-10 6.72348e-06 2.68309e-08