ITEM: TIMESTEP
500000
ITEM: NUMBER OF ATOMS
6
ITEM: BOX BOUNDS pp pp ff
-2.5000000000000000e-01 2.5000000000000000e-01
-2.5000000000000000e-01 2.5000000000000000e-01
-1.0000000000000001e-01 1.0000000000000001e-01
ITEM: ATOMS id type radius x y z fx fy fz c_bendingE c_stretchingE
1 1 0.015 0.0129249 0.0129249 -0.0263154 6.00407 6.00407 -14.2466 5.22205e-05 0.00133555
2 1 0.015 0.00969257 0.00969257 -0.0165632 2.40595 2.40595 39.3831 0.0291243 0.0511446
3 1 0.015 0.00507754 0.00507754 -0.00338591 -48.4551 -48.4551 -28.1349 0.0380028 0.11769
4 1 0.015 -0.00398291 -0.00398291 0.00532266 42.669 42.669 -1.06927 0.0430863 0.0993748
5 1 0.015 -0.0101829 -0.0101829 0.015903 19.9502 19.9502 -17.5105 0.0140142 0.0316813
6 1 0.015 -0.0135291 -0.0135291 0.0250389 -22.5741 -22.5741 21.5781 0.00513565 0.000187557
