ITEM: TIMESTEP
1000000
ITEM: NUMBER OF ATOMS
6
ITEM: BOX BOUNDS pp pp ff
-2.5000000000000000e-01 2.5000000000000000e-01
-2.5000000000000000e-01 2.5000000000000000e-01
-1.0000000000000001e-01 1.0000000000000001e-01
ITEM: ATOMS id type radius x y z fx fy fz c_bendingE c_stretchingE
6 1 0.015 -0.0217759 -0.0217759 -0.0162689 1.87613 1.87613 19.1539 0.00624139 0.00607185
5 1 0.015 -0.0151906 -0.0151906 -0.0092818 45.6327 45.6327 1.63452 0.00638848 0.147806
4 1 0.015 -0.00354626 -0.00354626 -0.00217202 -39.7588 -39.7588 -28.7015 0.00890992 0.149045
3 1 0.015 0.0042304 0.0042304 0.00211149 14.3336 14.3336 37.8419 0.00340921 0.0871601
2 1 0.015 0.0140153 0.0140153 0.0100577 -6.02589 -6.02589 -24.0762 0.00326212 0.0987731
1 1 0.015 0.0222679 0.0222679 0.0155535 -16.0578 -16.0578 -5.85266 0.000740677 0.0189241
