ITEM: TIMESTEP
100000
ITEM: NUMBER OF ATOMS
1500
ITEM: BOX BOUNDS ff ff ff
-2.5000000000000001e-02 2.5000000000000001e-02
-5.0000000000000001e-03 5.0000000000000001e-03
-5.0000000000000003e-02 5.0000000000000003e-02
ITEM: ATOMS id type radius x y z fx fy fz c_bendingE c_stretchingE
1 1 0.001 -0.0225 0 -0.0475 8.06006e-15 0 2.25525e-12 0 2.11032e-28
151 2 0.001 -0.0175 0 -0.0475 8.06006e-15 0 2.25525e-12 0 2.11032e-28
301 3 0.001 -0.0125 0 -0.0475 -8.06006e-15 0 2.25525e-12 0 2.11032e-28
451 4 0.001 -0.0075 0 -0.0475 -8.06006e-15 0 2.25525e-12 0 2.11032e-28
601 5 0.001 -0.0025 0 -0.0475 -8.06006e-15 0 2.25525e-12 0 2.11032e-28
751 6 0.001 0.0025 0 -0.0475 8.06006e-15 0 2.25525e-12 0 2.11032e-28
901 7 0.001 0.0075 0 -0.0475 -8.06006e-15 0 2.25525e-12 0 2.11032e-28
1051 8 0.001 0.0125 0 -0.0475 8.06006e-15 0 2.25525e-12 0 2.11032e-28
1201 9 0.001 0.0175 0 -0.0475 -8.06006e-15 0 2.25525e-12 0 2.11032e-28
1351 10 0.001 0.0225 0 -0.0475 -8.06006e-15 0 2.25525e-12 0 2.11032e-28
2 1 0.001 -0.0225 0 -0.0468624 8.06006e-15 0 -2.80044e-12 0 2.23372e-28
3 1 0.001 -0.0225 0 -0.0462248 8.06006e-15 0 1.04446e-12 0 2.26984e-29
4 1 0.001 -0.0225 0 -0.0455872 8.06006e-15 0 7.51165e-13 0 7.54007e-29
152 2 0.001 -0.0175 0 -0.0468624 8.06006e-15 0 -2.80044e-12 0 2.23372e-28
153 2 0.001 -0.0175 0 -0.0462248 8.06006e-15 0 1.04446e-12 0 2.26984e-29
154 2 0.001 -0.0175 0 -0.0455872 8.06006e-15 0 7.51165e-13 0 7.54007e-29
302 3 0.001 -0.0125 0 -0.0468624 -8.06006e-15 0 -2.80044e-12 0 2.23372e-28
303 3 0.001 -0.0125 0 -0.0462248 -8.06006e-15 0 1.04446e-12 0 2.26984e-29
304 3 0.001 -0.0125 0 -0.0455872 -8.06006e-15 0 7.51165e-13 0 7.54007e-29
452 4 0.001 -0.0075 0 -0.0468624 -8.06006e-15 0 -2.80044e-12 0 2.23372e-28
453 4 0.001 -0.0075 0 -0.0462248 -8.06006e-15 0 1.04446e-12 0 2.26984e-29
454 4 0.001 -0.0075 0 -0.0455872 -8.06006e-15 0 7.51165e-13 0 7.54007e-29
602 5 0.001 -0.0025 0 -0.0468624 -8.06006e-15 0 -2.80044e-12 0 2.23372e-28
603 5 0.001 -0.0025 0 -0.0462248 -8.06006e-15 0 1.04446e-12 0 2.26984e-29
604 5 0.001 -0.0025 0 -0.0455872 -8.06006e-15 0 7.51165e-13 0 7.54007e-29
752 6 0.001 0.0025 0 -0.0468624 8.06006e-15 0 -2.80044e-12 0 2.23372e-28
753 6 0.001 0.0025 0 -0.0462248 8.06006e-15 0 1.04446e-12 0 2.26984e-29
754 6 0.001 0.0025 0 -0.0455872 8.06006e-15 0 7.51165e-13 0 7.54007e-29
902 7 0.001 0.0075 0 -0.0468624 -8.06006e-15 0 -2.80044e-12 0 2.23372e-28
903 7 0.001 0.0075 0 -0.0462248 -8.06006e-15 0 1.04446e-12 0 2.26984e-29
904 7 0.001 0.0075 0 -0.0455872 -8.06006e-15 0 7.51165e-13 0 7.54007e-29
1052 8 0.001 0.0125 0 -0.0468624 8.06006e-15 0 -2.80044e-12 0 2.23372e-28
1053 8 0.001 0.0125 0 -0.0462248 8.06006e-15 0 1.04446e-12 0 2.26984e-29
1054 8 0.001 0.0125 0 -0.0455872 8.06006e-15 0 7.51165e-13 0 7.54007e-29
1202 9 0.001 0.0175 0 -0.0468624 -8.06006e-15 0 -2.80044e-12 0 2.23372e-28
1203 9 0.001 0.0175 0 -0.0462248 -8.06006e-15 0 1.04446e-12 0 2.26984e-29
1204 9 0.001 0.0175 0 -0.0455872 -8.06006e-15 0 7.51165e-13 0 7.54007e-29
1352 10 0.001 0.0225 0 -0.0468624 -8.06006e-15 0 -2.80044e-12 0 2.23372e-28
1353 10 0.001 0.0225 0 -0.0462248 -8.06006e-15 0 1.04446e-12 0 2.26984e-29
1354 10 0.001 0.0225 0 -0.0455872 -8.06006e-15 0 7.51165e-13 0 7.54007e-29
5 1 0.001 -0.0225 0 -0.0449497 8.06006e-15 0 -5.43151e-12 0 7.90683e-28
6 1 0.001 -0.0225 0 -0.0443121 8.06006e-15 0 4.80554e-12 0 7.4185e-28
155 2 0.001 -0.0175 0 -0.0449497 8.06006e-15 0 -5.43151e-12 0 7.90683e-28
156 2 0.001 -0.0175 0 -0.0443121 8.06006e-15 0 4.80554e-12 0 7.4185e-28
305 3 0.001 -0.0125 0 -0.0449497 -8.06006e-15 0 -5.43151e-12 0 7.90683e-28
306 3 0.001 -0.0125 0 -0.0443121 -8.06006e-15 0 4.80554e-12 0 7.4185e-28
455 4 0.001 -0.0075 0 -0.0449497 -8.06006e-15 0 -5.43151e-12 0 7.90683e-28
456 4 0.001 -0.0075 0 -0.0443121 -8.06006e-15 0 4.80554e-12 0 7.4185e-28
605 5 0.001 -0.0025 0 -0.0449497 -8.06006e-15 0 -5.43151e-12 0 7.90683e-28
606 5 0.001 -0.0025 0 -0.0443121 -8.06006e-15 0 4.80554e-12 0 7.4185e-28
755 6 0.001 0.0025 0 -0.0449497 8.06006e-15 0 -5.43151e-12 0 7.90683e-28
756 6 0.001 0.0025 0 -0.0443121 8.06006e-15 0 4.80554e-12 0 7.4185e-28
905 7 0.001 0.0075 0 -0.0449497 -8.06006e-15 0 -5.43151e-12 0 7.90683e-28
906 7 0.001 0.0075 0 -0.0443121 -8.06006e-15 0 4.80554e-12 0 7.4185e-28
1055 8 0.001 0.0125 0 -0.0449497 8.06006e-15 0 -5.43151e-12 0 7.90683e-28
1056 8 0.001 0.0125 0 -0.0443121 8.06006e-15 0 4.80554e-12 0 7.4185e-28
1205 9 0.001 0.0175 0 -0.0449497 -8.06006e-15 0 -5.43151e-12 0 7.90683e-28
1206 9 0.001 0.0175 0 -0.0443121 -8.06006e-15 0 4.80554e-12 0 7.4185e-28
1355 10 0.001 0.0225 0 -0.0449497 -8.06006e-15 0 -5.43151e-12 0 7.90683e-28
1356 10 0.001 0.0225 0 -0.0443121 -8.06006e-15 0 4.80554e-12 0 7.4185e-28
7 1 0.001 -0.0225 0 -0.0436745 8.06006e-15 0 7.52289e-13 0 9.49339e-29
8 1 0.001 -0.0225 0 -0.0430369 8.06006e-15 0 7.11227e-13 0 2.59625e-28
157 2 0.001 -0.0175 0 -0.0436745 8.06006e-15 0 7.52289e-13 0 9.49339e-29
158 2 0.001 -0.0175 0 -0.0430369 8.06006e-15 0 7.11227e-13 0 2.59625e-28
307 3 0.001 -0.0125 0 -0.0436745 -8.06006e-15 0 7.52289e-13 0 9.49339e-29
308 3 0.001 -0.0125 0 -0.0430369 -8.06006e-15 0 7.11227e-13 0 2.59625e-28
457 4 0.001 -0.0075 0 -0.0436745 -8.06006e-15 0 7.52289e-13 0 9.49339e-29
458 4 0.001 -0.0075 0 -0.0430369 -8.06006e-15 0 7.11227e-13 0 2.59625e-28
607 5 0.001 -0.0025 0 -0.0436745 -8.06006e-15 0 7.52289e-13 0 9.49339e-29
608 5 0.001 -0.0025 0 -0.0430369 -8.06006e-15 0 7.11227e-13 0 2.59625e-28
757 6 0.001 0.0025 0 -0.0436745 8.06006e-15 0 7.52289e-13 0 9.49339e-29
758 6 0.001 0.0025 0 -0.0430369 8.06006e-15 0 7.11227e-13 0 2.59625e-28
907 7 0.001 0.0075 0 -0.0436745 -8.06006e-15 0 7.52289e-13 0 9.49339e-29
908 7 0.001 0.0075 0 -0.0430369 -8.06006e-15 0 7.11227e-13 0 2.59625e-28
1057 8 0.001 0.0125 0 -0.0436745 8.06006e-15 0 7.52289e-13 0 9.49339e-29
1058 8 0.001 0.0125 0 -0.0430369 8.06006e-15 0 7.11227e-13 0 2.59625e-28
1207 9 0.001 0.0175 0 -0.0436745 -8.06006e-15 0 7.52289e-13 0 9.49339e-29
1208 9 0.001 0.0175 0 -0.0430369 -8.06006e-15 0 7.11227e-13 0 2.59625e-28
1357 10 0.001 0.0225 0 -0.0436745 -8.06006e-15 0 7.52289e-13 0 9.49339e-29
1358 10 0.001 0.0225 0 -0.0430369 -8.06006e-15 0 7.11227e-13 0 2.59625e-28
9 1 0.001 -0.0225 0 -0.0423993 8.06006e-15 0 -2.29939e-12 0 1.82747e-28
10 1 0.001 -0.0225 0 -0.0417617 8.06006e-15 0 -3.46822e-12 0 5.63854e-28
11 1 0.001 -0.0225 0 -0.0411242 8.06006e-15 0 5.76717e-12 0 7.42908e-28
159 2 0.001 -0.0175 0 -0.0423993 8.06006e-15 0 -2.29939e-12 0 1.82747e-28
160 2 0.001 -0.0175 0 -0.0417617 8.06006e-15 0 -3.46822e-12 0 5.63854e-28
161 2 0.001 -0.0175 0 -0.0411242 8.06006e-15 0 5.76717e-12 0 7.42908e-28
309 3 0.001 -0.0125 0 -0.0423993 -8.06006e-15 0 -2.29939e-12 0 1.82747e-28
310 3 0.001 -0.0125 0 -0.0417617 -8.06006e-15 0 -3.46822e-12 0 5.63854e-28
311 3 0.001 -0.0125 0 -0.0411242 -8.06006e-15 0 5.76717e-12 0 7.42908e-28
459 4 0.001 -0.0075 0 -0.0423993 -8.06006e-15 0 -2.29939e-12 0 1.82747e-28
460 4 0.001 -0.0075 0 -0.0417617 -8.06006e-15 0 -3.46822e-12 0 5.63854e-28
461 4 0.001 -0.0075 0 -0.0411242 -8.06006e-15 0 5.76717e-12 0 7.42908e-28
609 5 0.001 -0.0025 0 -0.0423993 -8.06006e-15 0 -2.29939e-12 0 1.82747e-28
610 5 0.001 -0.0025 0 -0.0417617 -8.06006e-15 0 -3.46822e-12 0 5.63854e-28
611 5 0.001 -0.0025 0 -0.0411242 -8.06006e-15 0 5.76717e-12 0 7.42908e-28
759 6 0.001 0.0025 0 -0.0423993 8.06006e-15 0 -2.29939e-12 0 1.82747e-28
760 6 0.001 0.0025 0 -0.0417617 8.06006e-15 0 -3.46822e-12 0 5.63854e-28
761 6 0.001 0.0025 0 -0.0411242 8.06006e-15 0 5.76717e-12 0 7.42908e-28
909 7 0.001 0.0075 0 -0.0423993 -8.06006e-15 0 -2.29939e-12 0 1.82747e-28
910 7 0.001 0.0075 0 -0.0417617 -8.06006e-15 0 -3.46822e-12 0 5.63854e-28
911 7 0.001 0.0075 0 -0.0411242 -8.06006e-15 0 5.76717e-12 0 7.42908e-28
1059 8 0.001 0.0125 0 -0.0423993 8.06006e-15 0 -2.29939e-12 0 1.82747e-28
1060 8 0.001 0.0125 0 -0.0417617 8.06006e-15 0 -3.46822e-12 0 5.63854e-28
1061 8 0.001 0.0125 0 -0.0411242 8.06006e-15 0 5.76717e-12 0 7.42908e-28
1209 9 0.001 0.0175 0 -0.0423993 -8.06006e-15 0 -2.29939e-12 0 1.82747e-28
1210 9 0.001 0.0175 0 -0.0417617 -8.06006e-15 0 -3.46822e-12 0 5.63854e-28
1211 9 0.001 0.0175 0 -0.0411242 -8.06006e-15 0 5.76717e-12 0 7.42908e-28
1359 10 0.001 0.0225 0 -0.0423993 -8.06006e-15 0 -2.29939e-12 0 1.82747e-28
1360 10 0.001 0.0225 0 -0.0417617 -8.06006e-15 0 -3.46822e-12 0 5.63854e-28
1361 10 0.001 0.0225 0 -0.0411242 -8.06006e-15 0 5.76717e-12 0 7.42908e-28
12 1 0.001 -0.0225 0 -0.0404866 8.06006e-15 0 -2.75871e-12 0 1.99568e-28
13 1 0.001 -0.0225 0 -0.039849 8.06006e-15 0 1.50556e-12 0 4.75305e-29
162 2 0.001 -0.0175 0 -0.0404866 8.06006e-15 0 -2.75871e-12 0 1.99568e-28
163 2 0.001 -0.0175 0 -0.039849 8.06006e-15 0 1.50556e-12 0 4.75305e-29
312 3 0.001 -0.0125 0 -0.0404866 -8.06006e-15 0 -2.75871e-12 0 1.99568e-28
313 3 0.001 -0.0125 0 -0.039849 -8.06006e-15 0 1.50556e-12 0 4.75305e-29
462 4 0.001 -0.0075 0 -0.0404866 -8.06006e-15 0 -2.75871e-12 0 1.99568e-28
463 4 0.001 -0.0075 0 -0.039849 -8.06006e-15 0 1.50556e-12 0 4.75305e-29
612 5 0.001 -0.0025 0 -0.0404866 -8.06006e-15 0 -2.75871e-12 0 1.99568e-28
613 5 0.001 -0.0025 0 -0.039849 -8.06006e-15 0 1.50556e-12 0 4.75305e-29
762 6 0.001 0.0025 0 -0.0404866 8.06006e-15 0 -2.75871e-12 0 1.99568e-28
763 6 0.001 0.0025 0 -0.039849 8.06006e-15 0 1.50556e-12 0 4.75305e-29
912 7 0.001 0.0075 0 -0.0404866 -8.06006e-15 0 -2.75871e-12 0 1.99568e-28
913 7 0.001 0.0075 0 -0.039849 -8.06006e-15 0 1.50556e-12 0 4.75305e-29
1062 8 0.001 0.0125 0 -0.0404866 8.06006e-15 0 -2.75871e-12 0 1.99568e-28
1063 8 0.001 0.0125 0 -0.039849 8.06006e-15 0 1.50556e-12 0 4.75305e-29
1212 9 0.001 0.0175 0 -0.0404866 -8.06006e-15 0 -2.75871e-12 0 1.99568e-28
1213 9 0.001 0.0175 0 -0.039849 -8.06006e-15 0 1.50556e-12 0 4.75305e-29
1362 10 0.001 0.0225 0 -0.0404866 -8.06006e-15 0 -2.75871e-12 0 1.99568e-28
1363 10 0.001 0.0225 0 -0.039849 -8.06006e-15 0 1.50556e-12 0 4.75305e-29
14 1 0.001 -0.0225 0 -0.0392114 8.06006e-15 0 -1.67218e-12 0 5.79972e-29
15 1 0.001 -0.0225 0 -0.0385738 8.06006e-15 0 1.88022e-12 0 7.42748e-29
16 1 0.001 -0.0225 0 -0.0379362 8.06006e-15 0 4.16967e-14 0 9.39711e-29
164 2 0.001 -0.0175 0 -0.0392114 8.06006e-15 0 -1.67218e-12 0 5.79972e-29
165 2 0.001 -0.0175 0 -0.0385738 8.06006e-15 0 1.88022e-12 0 7.42748e-29
166 2 0.001 -0.0175 0 -0.0379362 8.06006e-15 0 4.16967e-14 0 9.39711e-29
314 3 0.001 -0.0125 0 -0.0392114 -8.06006e-15 0 -1.67218e-12 0 5.79972e-29
315 3 0.001 -0.0125 0 -0.0385738 -8.06006e-15 0 1.88022e-12 0 7.42748e-29
316 3 0.001 -0.0125 0 -0.0379362 -8.06006e-15 0 4.16967e-14 0 9.39711e-29
464 4 0.001 -0.0075 0 -0.0392114 -8.06006e-15 0 -1.67218e-12 0 5.79972e-29
465 4 0.001 -0.0075 0 -0.0385738 -8.06006e-15 0 1.88022e-12 0 7.42748e-29
466 4 0.001 -0.0075 0 -0.0379362 -8.06006e-15 0 4.16967e-14 0 9.39711e-29
614 5 0.001 -0.0025 0 -0.0392114 -8.06006e-15 0 -1.67218e-12 0 5.79972e-29
615 5 0.001 -0.0025 0 -0.0385738 -8.06006e-15 0 1.88022e-12 0 7.42748e-29
616 5 0.001 -0.0025 0 -0.0379362 -8.06006e-15 0 4.16967e-14 0 9.39711e-29
764 6 0.001 0.0025 0 -0.0392114 8.06006e-15 0 -1.67218e-12 0 5.79972e-29
765 6 0.001 0.0025 0 -0.0385738 8.06006e-15 0 1.88022e-12 0 7.42748e-29
766 6 0.001 0.0025 0 -0.0379362 8.06006e-15 0 4.16967e-14 0 9.39711e-29
914 7 0.001 0.0075 0 -0.0392114 -8.06006e-15 0 -1.67218e-12 0 5.79972e-29
915 7 0.001 0.0075 0 -0.0385738 -8.06006e-15 0 1.88022e-12 0 7.42748e-29
916 7 0.001 0.0075 0 -0.0379362 -8.06006e-15 0 4.16967e-14 0 9.39711e-29
1064 8 0.001 0.0125 0 -0.0392114 8.06006e-15 0 -1.67218e-12 0 5.79972e-29
1065 8 0.001 0.0125 0 -0.0385738 8.06006e-15 0 1.88022e-12 0 7.42748e-29
1066 8 0.001 0.0125 0 -0.0379362 8.06006e-15 0 4.16967e-14 0 9.39711e-29
1214 9 0.001 0.0175 0 -0.0392114 -8.06006e-15 0 -1.67218e-12 0 5.79972e-29
1215 9 0.001 0.0175 0 -0.0385738 -8.06006e-15 0 1.88022e-12 0 7.42748e-29
1216 9 0.001 0.0175 0 -0.0379362 -8.06006e-15 0 4.16967e-14 0 9.39711e-29
1364 10 0.001 0.0225 0 -0.0392114 -8.06006e-15 0 -1.67218e-12 0 5.79972e-29
1365 10 0.001 0.0225 0 -0.0385738 -8.06006e-15 0 1.88022e-12 0 7.42748e-29
1366 10 0.001 0.0225 0 -0.0379362 -8.06006e-15 0 4.16967e-14 0 9.39711e-29
17 1 0.001 -0.0225 0 -0.0372987 8.06006e-15 0 -2.25661e-12 0 1.05858e-28
18 1 0.001 -0.0225 0 -0.0366611 8.06006e-15 0 2.34062e-12 0 1.13674e-28
167 2 0.001 -0.0175 0 -0.0372987 8.06006e-15 0 -2.25661e-12 0 1.05858e-28
168 2 0.001 -0.0175 0 -0.0366611 8.06006e-15 0 2.34062e-12 0 1.13674e-28
317 3 0.001 -0.0125 0 -0.0372987 -8.06006e-15 0 -2.25661e-12 0 1.05858e-28
318 3 0.001 -0.0125 0 -0.0366611 -8.06006e-15 0 2.34062e-12 0 1.13674e-28
467 4 0.001 -0.0075 0 -0.0372987 -8.06006e-15 0 -2.25661e-12 0 1.05858e-28
468 4 0.001 -0.0075 0 -0.0366611 -8.06006e-15 0 2.34062e-12 0 1.13674e-28
617 5 0.001 -0.0025 0 -0.0372987 -8.06006e-15 0 -2.25661e-12 0 1.05858e-28
618 5 0.001 -0.0025 0 -0.0366611 -8.06006e-15 0 2.34062e-12 0 1.13674e-28
767 6 0.001 0.0025 0 -0.0372987 8.06006e-15 0 -2.25661e-12 0 1.05858e-28
768 6 0.001 0.0025 0 -0.0366611 8.06006e-15 0 2.34062e-12 0 1.13674e-28
917 7 0.001 0.0075 0 -0.0372987 -8.06006e-15 0 -2.25661e-12 0 1.05858e-28
918 7 0.001 0.0075 0 -0.0366611 -8.06006e-15 0 2.34062e-12 0 1.13674e-28
1067 8 0.001 0.0125 0 -0.0372987 8.06006e-15 0 -2.25661e-12 0 1.05858e-28
1068 8 0.001 0.0125 0 -0.0366611 8.06006e-15 0 2.34062e-12 0 1.13674e-28
1217 9 0.001 0.0175 0 -0.0372987 -8.06006e-15 0 -2.25661e-12 0 1.05858e-28
1218 9 0.001 0.0175 0 -0.0366611 -8.06006e-15 0 2.34062e-12 0 1.13674e-28
1367 10 0.001 0.0225 0 -0.0372987 -8.06006e-15 0 -2.25661e-12 0 1.05858e-28
1368 10 0.001 0.0225 0 -0.0366611 -8.06006e-15 0 2.34062e-12 0 1.13674e-28
19 1 0.001 -0.0225 0 -0.0360235 8.06006e-15 0 -1.37944e-12 0 5.84933e-29
20 1 0.001 -0.0225 0 -0.0353859 8.06006e-15 0 -3.00767e-12 0 4.32199e-28
169 2 0.001 -0.0175 0 -0.0360235 8.06006e-15 0 -1.37944e-12 0 5.84933e-29
170 2 0.001 -0.0175 0 -0.0353859 8.06006e-15 0 -3.00767e-12 0 4.32199e-28
319 3 0.001 -0.0125 0 -0.0360235 -8.06006e-15 0 -1.37944e-12 0 5.84933e-29
320 3 0.001 -0.0125 0 -0.0353859 -8.06006e-15 0 -3.00767e-12 0 4.32199e-28
469 4 0.001 -0.0075 0 -0.0360235 -8.06006e-15 0 -1.37944e-12 0 5.84933e-29
470 4 0.001 -0.0075 0 -0.0353859 -8.06006e-15 0 -3.00767e-12 0 4.32199e-28
619 5 0.001 -0.0025 0 -0.0360235 -8.06006e-15 0 -1.37944e-12 0 5.84933e-29
620 5 0.001 -0.0025 0 -0.0353859 -8.06006e-15 0 -3.00767e-12 0 4.32199e-28
769 6 0.001 0.0025 0 -0.0360235 8.06006e-15 0 -1.37944e-12 0 5.84933e-29
770 6 0.001 0.0025 0 -0.0353859 8.06006e-15 0 -3.00767e-12 0 4.32199e-28
919 7 0.001 0.0075 0 -0.0360235 -8.06006e-15 0 -1.37944e-12 0 5.84933e-29
920 7 0.001 0.0075 0 -0.0353859 -8.06006e-15 0 -3.00767e-12 0 4.32199e-28
1069 8 0.001 0.0125 0 -0.0360235 8.06006e-15 0 -1.37944e-12 0 5.84933e-29
1070 8 0.001 0.0125 0 -0.0353859 8.06006e-15 0 -3.00767e-12 0 4.32199e-28
1219 9 0.001 0.0175 0 -0.0360235 -8.06006e-15 0 -1.37944e-12 0 5.84933e-29
1220 9 0.001 0.0175 0 -0.0353859 -8.06006e-15 0 -3.00767e-12 0 4.32199e-28
1369 10 0.001 0.0225 0 -0.0360235 -8.06006e-15 0 -1.37944e-12 0 5.84933e-29
1370 10 0.001 0.0225 0 -0.0353859 -8.06006e-15 0 -3.00767e-12 0 4.32199e-28
21 1 0.001 -0.0225 0 -0.0347483 8.06006e-15 0 4.09597e-12 0 4.62181e-28
22 1 0.001 -0.0225 0 -0.0341107 8.06006e-15 0 -1.96454e-12 0 8.10124e-29
23 1 0.001 -0.0225 0 -0.0334732 8.06006e-15 0 2.04731e-12 0 8.73785e-29
171 2 0.001 -0.0175 0 -0.0347483 8.06006e-15 0 4.09597e-12 0 4.62181e-28
172 2 0.001 -0.0175 0 -0.0341107 8.06006e-15 0 -1.96454e-12 0 8.10124e-29
173 2 0.001 -0.0175 0 -0.0334732 8.06006e-15 0 2.04731e-12 0 8.73785e-29
321 3 0.001 -0.0125 0 -0.0347483 -8.06006e-15 0 4.09597e-12 0 4.62181e-28
322 3 0.001 -0.0125 0 -0.0341107 -8.06006e-15 0 -1.96454e-12 0 8.10124e-29
323 3 0.001 -0.0125 0 -0.0334732 -8.06006e-15 0 2.04731e-12 0 8.73785e-29
471 4 0.001 -0.0075 0 -0.0347483 -8.06006e-15 0 4.09597e-12 0 4.62181e-28
472 4 0.001 -0.0075 0 -0.0341107 -8.06006e-15 0 -1.96454e-12 0 8.10124e-29
473 4 0.001 -0.0075 0 -0.0334732 -8.06006e-15 0 2.04731e-12 0 8.73785e-29
621 5 0.001 -0.0025 0 -0.0347483 -8.06006e-15 0 4.09597e-12 0 4.62181e-28
622 5 0.001 -0.0025 0 -0.0341107 -8.06006e-15 0 -1.96454e-12 0 8.10124e-29
623 5 0.001 -0.0025 0 -0.0334732 -8.06006e-15 0 2.04731e-12 0 8.73785e-29
771 6 0.001 0.0025 0 -0.0347483 8.06006e-15 0 4.09597e-12 0 4.62181e-28
772 6 0.001 0.0025 0 -0.0341107 8.06006e-15 0 -1.96454e-12 0 8.10124e-29
773 6 0.001 0.0025 0 -0.0334732 8.06006e-15 0 2.04731e-12 0 8.73785e-29
921 7 0.001 0.0075 0 -0.0347483 -8.06006e-15 0 4.09597e-12 0 4.62181e-28
922 7 0.001 0.0075 0 -0.0341107 -8.06006e-15 0 -1.96454e-12 0 8.10124e-29
923 7 0.001 0.0075 0 -0.0334732 -8.06006e-15 0 2.04731e-12 0 8.73785e-29
1071 8 0.001 0.0125 0 -0.0347483 8.06006e-15 0 4.09597e-12 0 4.62181e-28
1072 8 0.001 0.0125 0 -0.0341107 8.06006e-15 0 -1.96454e-12 0 8.10124e-29
1073 8 0.001 0.0125 0 -0.0334732 8.06006e-15 0 2.04731e-12 0 8.73785e-29
1221 9 0.001 0.0175 0 -0.0347483 -8.06006e-15 0 4.09597e-12 0 4.62181e-28
1222 9 0.001 0.0175 0 -0.0341107 -8.06006e-15 0 -1.96454e-12 0 8.10124e-29
1223 9 0.001 0.0175 0 -0.0334732 -8.06006e-15 0 2.04731e-12 0 8.73785e-29
1371 10 0.001 0.0225 0 -0.0347483 -8.06006e-15 0 4.09597e-12 0 4.62181e-28
1372 10 0.001 0.0225 0 -0.0341107 -8.06006e-15 0 -1.96454e-12 0 8.10124e-29
1373 10 0.001 0.0225 0 -0.0334732 -8.06006e-15 0 2.04731e-12 0 8.73785e-29
24 1 0.001 -0.0225 0 -0.0328356 8.06006e-15 0 -1.38007e-12 0 4.5512e-29
25 1 0.001 -0.0225 0 -0.032198 8.06006e-15 0 5.86497e-13 0 8.45064e-30
174 2 0.001 -0.0175 0 -0.0328356 8.06006e-15 0 -1.38007e-12 0 4.5512e-29
175 2 0.001 -0.0175 0 -0.032198 8.06006e-15 0 5.86497e-13 0 8.45064e-30
324 3 0.001 -0.0125 0 -0.0328356 -8.06006e-15 0 -1.38007e-12 0 4.5512e-29
325 3 0.001 -0.0125 0 -0.032198 -8.06006e-15 0 5.86497e-13 0 8.45064e-30
474 4 0.001 -0.0075 0 -0.0328356 -8.06006e-15 0 -1.38007e-12 0 4.5512e-29
475 4 0.001 -0.0075 0 -0.032198 -8.06006e-15 0 5.86497e-13 0 8.45064e-30
624 5 0.001 -0.0025 0 -0.0328356 -8.06006e-15 0 -1.38007e-12 0 4.5512e-29
625 5 0.001 -0.0025 0 -0.032198 -8.06006e-15 0 5.86497e-13 0 8.45064e-30
774 6 0.001 0.0025 0 -0.0328356 8.06006e-15 0 -1.38007e-12 0 4.5512e-29
775 6 0.001 0.0025 0 -0.032198 8.06006e-15 0 5.86497e-13 0 8.45064e-30
924 7 0.001 0.0075 0 -0.0328356 -8.06006e-15 0 -1.38007e-12 0 4.5512e-29
925 7 0.001 0.0075 0 -0.032198 -8.06006e-15 0 5.86497e-13 0 8.45064e-30
1074 8 0.001 0.0125 0 -0.0328356 8.06006e-15 0 -1.38007e-12 0 4.5512e-29
1075 8 0.001 0.0125 0 -0.032198 8.06006e-15 0 5.86497e-13 0 8.45064e-30
1224 9 0.001 0.0175 0 -0.0328356 -8.06006e-15 0 -1.38007e-12 0 4.5512e-29
1225 9 0.001 0.0175 0 -0.032198 -8.06006e-15 0 5.86497e-13 0 8.45064e-30
1374 10 0.001 0.0225 0 -0.0328356 -8.06006e-15 0 -1.38007e-12 0 4.5512e-29
1375 10 0.001 0.0225 0 -0.032198 -8.06006e-15 0 5.86497e-13 0 8.45064e-30
26 1 0.001 -0.0225 0 -0.0315604 8.06006e-15 0 9.81127e-13 0 5.57713e-29
27 1 0.001 -0.0225 0 -0.0309228 8.06006e-15 0 -1.94271e-12 0 8.09388e-29
176 2 0.001 -0.0175 0 -0.0315604 8.06006e-15 0 9.81127e-13 0 5.57713e-29
177 2 0.001 -0.0175 0 -0.0309228 8.06006e-15 0 -1.94271e-12 0 8.09388e-29
326 3 0.001 -0.0125 0 -0.0315604 -8.06006e-15 0 9.81127e-13 0 5.57713e-29
327 3 0.001 -0.0125 0 -0.0309228 -8.06006e-15 0 -1.94271e-12 0 8.09388e-29
476 4 0.001 -0.0075 0 -0.0315604 -8.06006e-15 0 9.81127e-13 0 5.57713e-29
477 4 0.001 -0.0075 0 -0.0309228 -8.06006e-15 0 -1.94271e-12 0 8.09388e-29
626 5 0.001 -0.0025 0 -0.0315604 -8.06006e-15 0 9.81127e-13 0 5.57713e-29
627 5 0.001 -0.0025 0 -0.0309228 -8.06006e-15 0 -1.94271e-12 0 8.09388e-29
776 6 0.001 0.0025 0 -0.0315604 8.06006e-15 0 9.81127e-13 0 5.57713e-29
777 6 0.001 0.0025 0 -0.0309228 8.06006e-15 0 -1.94271e-12 0 8.09388e-29
926 7 0.001 0.0075 0 -0.0315604 -8.06006e-15 0 9.81127e-13 0 5.57713e-29
927 7 0.001 0.0075 0 -0.0309228 -8.06006e-15 0 -1.94271e-12 0 8.09388e-29
1076 8 0.001 0.0125 0 -0.0315604 8.06006e-15 0 9.81127e-13 0 5.57713e-29
1077 8 0.001 0.0125 0 -0.0309228 8.06006e-15 0 -1.94271e-12 0 8.09388e-29
1226 9 0.001 0.0175 0 -0.0315604 -8.06006e-15 0 9.81127e-13 0 5.57713e-29
1227 9 0.001 0.0175 0 -0.0309228 -8.06006e-15 0 -1.94271e-12 0 8.09388e-29
1376 10 0.001 0.0225 0 -0.0315604 -8.06006e-15 0 9.81127e-13 0 5.57713e-29
1377 10 0.001 0.0225 0 -0.0309228 -8.06006e-15 0 -1.94271e-12 0 8.09388e-29
28 1 0.001 -0.0225 0 -0.0302852 8.06006e-15 0 3.13759e-13 0 3.59663e-29
29 1 0.001 -0.0225 0 -0.0296477 8.06006e-15 0 1.29327e-12 0 3.71002e-29
30 1 0.001 -0.0225 0 -0.0290101 8.06006e-15 0 -2.54798e-12 0 1.52573e-28
178 2 0.001 -0.0175 0 -0.0302852 8.06006e-15 0 3.13759e-13 0 3.59663e-29
179 2 0.001 -0.0175 0 -0.0296477 8.06006e-15 0 1.29327e-12 0 3.71002e-29
180 2 0.001 -0.0175 0 -0.0290101 8.06006e-15 0 -2.54798e-12 0 1.52573e-28
328 3 0.001 -0.0125 0 -0.0302852 -8.06006e-15 0 3.13759e-13 0 3.59663e-29
329 3 0.001 -0.0125 0 -0.0296477 -8.06006e-15 0 1.29327e-12 0 3.71002e-29
330 3 0.001 -0.0125 0 -0.0290101 -8.06006e-15 0 -2.54798e-12 0 1.52573e-28
478 4 0.001 -0.0075 0 -0.0302852 -8.06006e-15 0 3.13759e-13 0 3.59663e-29
479 4 0.001 -0.0075 0 -0.0296477 -8.06006e-15 0 1.29327e-12 0 3.71002e-29
480 4 0.001 -0.0075 0 -0.0290101 -8.06006e-15 0 -2.54798e-12 0 1.52573e-28
628 5 0.001 -0.0025 0 -0.0302852 -8.06006e-15 0 3.13759e-13 0 3.59663e-29
629 5 0.001 -0.0025 0 -0.0296477 -8.06006e-15 0 1.29327e-12 0 3.71002e-29
630 5 0.001 -0.0025 0 -0.0290101 -8.06006e-15 0 -2.54798e-12 0 1.52573e-28
778 6 0.001 0.0025 0 -0.0302852 8.06006e-15 0 3.13759e-13 0 3.59663e-29
779 6 0.001 0.0025 0 -0.0296477 8.06006e-15 0 1.29327e-12 0 3.71002e-29
780 6 0.001 0.0025 0 -0.0290101 8.06006e-15 0 -2.54798e-12 0 1.52573e-28
928 7 0.001 0.0075 0 -0.0302852 -8.06006e-15 0 3.13759e-13 0 3.59663e-29
929 7 0.001 0.0075 0 -0.0296477 -8.06006e-15 0 1.29327e-12 0 3.71002e-29
930 7 0.001 0.0075 0 -0.0290101 -8.06006e-15 0 -2.54798e-12 0 1.52573e-28
1078 8 0.001 0.0125 0 -0.0302852 8.06006e-15 0 3.13759e-13 0 3.59663e-29
1079 8 0.001 0.0125 0 -0.0296477 8.06006e-15 0 1.29327e-12 0 3.71002e-29
1080 8 0.001 0.0125 0 -0.0290101 8.06006e-15 0 -2.54798e-12 0 1.52573e-28
1228 9 0.001 0.0175 0 -0.0302852 -8.06006e-15 0 3.13759e-13 0 3.59663e-29
1229 9 0.001 0.0175 0 -0.0296477 -8.06006e-15 0 1.29327e-12 0 3.71002e-29
1230 9 0.001 0.0175 0 -0.0290101 -8.06006e-15 0 -2.54798e-12 0 1.52573e-28
1378 10 0.001 0.0225 0 -0.0302852 -8.06006e-15 0 3.13759e-13 0 3.59663e-29
1379 10 0.001 0.0225 0 -0.0296477 -8.06006e-15 0 1.29327e-12 0 3.71002e-29
1380 10 0.001 0.0225 0 -0.0290101 -8.06006e-15 0 -2.54798e-12 0 1.52573e-28
31 1 0.001 -0.0225 0 -0.0283725 8.06006e-15 0 3.82374e-12 0 3.06039e-28
32 1 0.001 -0.0225 0 -0.0277349 8.06006e-15 0 -1.79635e-12 0 1.84405e-28
181 2 0.001 -0.0175 0 -0.0283725 8.06006e-15 0 3.82374e-12 0 3.06039e-28
182 2 0.001 -0.0175 0 -0.0277349 8.06006e-15 0 -1.79635e-12 0 1.84405e-28
331 3 0.001 -0.0125 0 -0.0283725 -8.06006e-15 0 3.82374e-12 0 3.06039e-28
332 3 0.001 -0.0125 0 -0.0277349 -8.06006e-15 0 -1.79635e-12 0 1.84405e-28
481 4 0.001 -0.0075 0 -0.0283725 -8.06006e-15 0 3.82374e-12 0 3.06039e-28
482 4 0.001 -0.0075 0 -0.0277349 -8.06006e-15 0 -1.79635e-12 0 1.84405e-28
631 5 0.001 -0.0025 0 -0.0283725 -8.06006e-15 0 3.82374e-12 0 3.06039e-28
632 5 0.001 -0.0025 0 -0.0277349 -8.06006e-15 0 -1.79635e-12 0 1.84405e-28
781 6 0.001 0.0025 0 -0.0283725 8.06006e-15 0 3.82374e-12 0 3.06039e-28
782 6 0.001 0.0025 0 -0.0277349 8.06006e-15 0 -1.79635e-12 0 1.84405e-28
931 7 0.001 0.0075 0 -0.0283725 -8.06006e-15 0 3.82374e-12 0 3.06039e-28
932 7 0.001 0.0075 0 -0.0277349 -8.06006e-15 0 -1.79635e-12 0 1.84405e-28
1081 8 0.001 0.0125 0 -0.0283725 8.06006e-15 0 3.82374e-12 0 3.06039e-28
1082 8 0.001 0.0125 0 -0.0277349 8.06006e-15 0 -1.79635e-12 0 1.84405e-28
1231 9 0.001 0.0175 0 -0.0283725 -8.06006e-15 0 3.82374e-12 0 3.06039e-28
1232 9 0.001 0.0175 0 -0.0277349 -8.06006e-15 0 -1.79635e-12 0 1.84405e-28
1381 10 0.001 0.0225 0 -0.0283725 -8.06006e-15 0 3.82374e-12 0 3.06039e-28
1382 10 0.001 0.0225 0 -0.0277349 -8.06006e-15 0 -1.79635e-12 0 1.84405e-28
33 1 0.001 -0.0225 0 -0.0270973 8.06006e-15 0 -5.86443e-13 0 7.10493e-30
34 1 0.001 -0.0225 0 -0.0264597 8.06006e-15 0 -2.25534e-12 0 2.73773e-28
35 1 0.001 -0.0225 0 -0.0258221 8.06006e-15 0 3.2174e-12 0 2.88623e-28
183 2 0.001 -0.0175 0 -0.0270973 8.06006e-15 0 -5.86443e-13 0 7.10493e-30
184 2 0.001 -0.0175 0 -0.0264597 8.06006e-15 0 -2.25534e-12 0 2.73773e-28
185 2 0.001 -0.0175 0 -0.0258221 8.06006e-15 0 3.2174e-12 0 2.88623e-28
333 3 0.001 -0.0125 0 -0.0270973 -8.06006e-15 0 -5.86443e-13 0 7.10493e-30
334 3 0.001 -0.0125 0 -0.0264597 -8.06006e-15 0 -2.25534e-12 0 2.73773e-28
335 3 0.001 -0.0125 0 -0.0258221 -8.06006e-15 0 3.2174e-12 0 2.88623e-28
483 4 0.001 -0.0075 0 -0.0270973 -8.06006e-15 0 -5.86443e-13 0 7.10493e-30
484 4 0.001 -0.0075 0 -0.0264597 -8.06006e-15 0 -2.25534e-12 0 2.73773e-28
485 4 0.001 -0.0075 0 -0.0258221 -8.06006e-15 0 3.2174e-12 0 2.88623e-28
633 5 0.001 -0.0025 0 -0.0270973 -8.06006e-15 0 -5.86443e-13 0 7.10493e-30
634 5 0.001 -0.0025 0 -0.0264597 -8.06006e-15 0 -2.25534e-12 0 2.73773e-28
635 5 0.001 -0.0025 0 -0.0258221 -8.06006e-15 0 3.2174e-12 0 2.88623e-28
783 6 0.001 0.0025 0 -0.0270973 8.06006e-15 0 -5.86443e-13 0 7.10493e-30
784 6 0.001 0.0025 0 -0.0264597 8.06006e-15 0 -2.25534e-12 0 2.73773e-28
785 6 0.001 0.0025 0 -0.0258221 8.06006e-15 0 3.2174e-12 0 2.88623e-28
933 7 0.001 0.0075 0 -0.0270973 -8.06006e-15 0 -5.86443e-13 0 7.10493e-30
934 7 0.001 0.0075 0 -0.0264597 -8.06006e-15 0 -2.25534e-12 0 2.73773e-28
935 7 0.001 0.0075 0 -0.0258221 -8.06006e-15 0 3.2174e-12 0 2.88623e-28
1083 8 0.001 0.0125 0 -0.0270973 8.06006e-15 0 -5.86443e-13 0 7.10493e-30
1084 8 0.001 0.0125 0 -0.0264597 8.06006e-15 0 -2.25534e-12 0 2.73773e-28
1085 8 0.001 0.0125 0 -0.0258221 8.06006e-15 0 3.2174e-12 0 2.88623e-28
1233 9 0.001 0.0175 0 -0.0270973 -8.06006e-15 0 -5.86443e-13 0 7.10493e-30
1234 9 0.001 0.0175 0 -0.0264597 -8.06006e-15 0 -2.25534e-12 0 2.73773e-28
1235 9 0.001 0.0175 0 -0.0258221 -8.06006e-15 0 3.2174e-12 0 2.88623e-28
1383 10 0.001 0.0225 0 -0.0270973 -8.06006e-15 0 -5.86443e-13 0 7.10493e-30
1384 10 0.001 0.0225 0 -0.0264597 -8.06006e-15 0 -2.25534e-12 0 2.73773e-28
1385 10 0.001 0.0225 0 -0.0258221 -8.06006e-15 0 3.2174e-12 0 2.88623e-28
36 1 0.001 -0.0225 0 -0.0251846 8.06006e-15 0 1.21243e-12 0 1.64949e-28
37 1 0.001 -0.0225 0 -0.024547 8.06006e-15 0 -2.42488e-12 0 1.58839e-28
186 2 0.001 -0.0175 0 -0.0251846 8.06006e-15 0 1.21243e-12 0 1.64949e-28
187 2 0.001 -0.0175 0 -0.024547 8.06006e-15 0 -2.42488e-12 0 1.58839e-28
336 3 0.001 -0.0125 0 -0.0251846 -8.06006e-15 0 1.21243e-12 0 1.64949e-28
337 3 0.001 -0.0125 0 -0.024547 -8.06006e-15 0 -2.42488e-12 0 1.58839e-28
486 4 0.001 -0.0075 0 -0.0251846 -8.06006e-15 0 1.21243e-12 0 1.64949e-28
487 4 0.001 -0.0075 0 -0.024547 -8.06006e-15 0 -2.42488e-12 0 1.58839e-28
636 5 0.001 -0.0025 0 -0.0251846 -8.06006e-15 0 1.21243e-12 0 1.64949e-28
637 5 0.001 -0.0025 0 -0.024547 -8.06006e-15 0 -2.42488e-12 0 1.58839e-28
786 6 0.001 0.0025 0 -0.0251846 8.06006e-15 0 1.21243e-12 0 1.64949e-28
787 6 0.001 0.0025 0 -0.024547 8.06006e-15 0 -2.42488e-12 0 1.58839e-28
936 7 0.001 0.0075 0 -0.0251846 -8.06006e-15 0 1.21243e-12 0 1.64949e-28
937 7 0.001 0.0075 0 -0.024547 -8.06006e-15 0 -2.42488e-12 0 1.58839e-28
1086 8 0.001 0.0125 0 -0.0251846 8.06006e-15 0 1.21243e-12 0 1.64949e-28
1087 8 0.001 0.0125 0 -0.024547 8.06006e-15 0 -2.42488e-12 0 1.58839e-28
1236 9 0.001 0.0175 0 -0.0251846 -8.06006e-15 0 1.21243e-12 0 1.64949e-28
1237 9 0.001 0.0175 0 -0.024547 -8.06006e-15 0 -2.42488e-12 0 1.58839e-28
1386 10 0.001 0.0225 0 -0.0251846 -8.06006e-15 0 1.21243e-12 0 1.64949e-28
1387 10 0.001 0.0225 0 -0.024547 -8.06006e-15 0 -2.42488e-12 0 1.58839e-28
38 1 0.001 -0.0225 0 -0.0239094 8.06006e-15 0 -1.44049e-12 0 1.76233e-28
39 1 0.001 -0.0225 0 -0.0232718 8.06006e-15 0 4.07385e-12 0 3.44793e-28
188 2 0.001 -0.0175 0 -0.0239094 8.06006e-15 0 -1.44049e-12 0 1.76233e-28
189 2 0.001 -0.0175 0 -0.0232718 8.06006e-15 0 4.07385e-12 0 3.44793e-28
338 3 0.001 -0.0125 0 -0.0239094 -8.06006e-15 0 -1.44049e-12 0 1.76233e-28
339 3 0.001 -0.0125 0 -0.0232718 -8.06006e-15 0 4.07385e-12 0 3.44793e-28
488 4 0.001 -0.0075 0 -0.0239094 -8.06006e-15 0 -1.44049e-12 0 1.76233e-28
489 4 0.001 -0.0075 0 -0.0232718 -8.06006e-15 0 4.07385e-12 0 3.44793e-28
638 5 0.001 -0.0025 0 -0.0239094 -8.06006e-15 0 -1.44049e-12 0 1.76233e-28
639 5 0.001 -0.0025 0 -0.0232718 -8.06006e-15 0 4.07385e-12 0 3.44793e-28
788 6 0.001 0.0025 0 -0.0239094 8.06006e-15 0 -1.44049e-12 0 1.76233e-28
789 6 0.001 0.0025 0 -0.0232718 8.06006e-15 0 4.07385e-12 0 3.44793e-28
938 7 0.001 0.0075 0 -0.0239094 -8.06006e-15 0 -1.44049e-12 0 1.76233e-28
939 7 0.001 0.0075 0 -0.0232718 -8.06006e-15 0 4.07385e-12 0 3.44793e-28
1088 8 0.001 0.0125 0 -0.0239094 8.06006e-15 0 -1.44049e-12 0 1.76233e-28
1089 8 0.001 0.0125 0 -0.0232718 8.06006e-15 0 4.07385e-12 0 3.44793e-28
1238 9 0.001 0.0175 0 -0.0239094 -8.06006e-15 0 -1.44049e-12 0 1.76233e-28
1239 9 0.001 0.0175 0 -0.0232718 -8.06006e-15 0 4.07385e-12 0 3.44793e-28
1388 10 0.001 0.0225 0 -0.0239094 -8.06006e-15 0 -1.44049e-12 0 1.76233e-28
1389 10 0.001 0.0225 0 -0.0232718 -8.06006e-15 0 4.07385e-12 0 3.44793e-28
40 1 0.001 -0.0225 0 -0.0226342 8.06006e-15 0 -4.22607e-14 0 3.54631e-28
41 1 0.001 -0.0225 0 -0.0219966 8.06006e-15 0 -5.24474e-12 0 5.98515e-28
42 1 0.001 -0.0225 0 -0.0213591 8.06006e-15 0 6.75026e-12 0 9.47992e-28
190 2 0.001 -0.0175 0 -0.0226342 8.06006e-15 0 -4.22607e-14 0 3.54631e-28
191 2 0.001 -0.0175 0 -0.0219966 8.06006e-15 0 -5.24474e-12 0 5.98515e-28
192 2 0.001 -0.0175 0 -0.0213591 8.06006e-15 0 6.75026e-12 0 9.47992e-28
340 3 0.001 -0.0125 0 -0.0226342 -8.06006e-15 0 -4.22607e-14 0 3.54631e-28
341 3 0.001 -0.0125 0 -0.0219966 -8.06006e-15 0 -5.24474e-12 0 5.98515e-28
342 3 0.001 -0.0125 0 -0.0213591 -8.06006e-15 0 6.75026e-12 0 9.47992e-28
490 4 0.001 -0.0075 0 -0.0226342 -8.06006e-15 0 -4.22607e-14 0 3.54631e-28
491 4 0.001 -0.0075 0 -0.0219966 -8.06006e-15 0 -5.24474e-12 0 5.98515e-28
492 4 0.001 -0.0075 0 -0.0213591 -8.06006e-15 0 6.75026e-12 0 9.47992e-28
640 5 0.001 -0.0025 0 -0.0226342 -8.06006e-15 0 -4.22607e-14 0 3.54631e-28