ITEM: TIMESTEP
9100000
ITEM: NUMBER OF ATOMS
1500
ITEM: BOX BOUNDS ff ff ff
-2.5000000000000001e-02 2.5000000000000001e-02
-5.0000000000000001e-03 5.0000000000000001e-03
-5.0000000000000003e-02 5.0000000000000003e-02
ITEM: ATOMS id type radius x y z fx fy fz c_bendingE c_stretchingE
1 1 0.001 -0.0224999 0 -0.0475 2.7719e-25 0 -2.11112e-13 0 1.84654e-30
151 2 0.001 -0.0174999 0 -0.0475 2.7719e-25 0 -2.11112e-13 0 1.84654e-30
301 3 0.001 -0.0125001 0 -0.0475 -2.7719e-25 0 -2.11112e-13 0 1.84654e-30
451 4 0.001 -0.00750009 0 -0.0475 -2.7719e-25 0 -2.11112e-13 0 1.84654e-30
601 5 0.001 -0.00250009 0 -0.0475 -2.7719e-25 0 -2.11112e-13 0 1.84654e-30
751 6 0.001 0.00250009 0 -0.0475 2.7719e-25 0 -2.11112e-13 0 1.84654e-30
901 7 0.001 0.00749991 0 -0.0475 -2.7719e-25 0 -2.11112e-13 0 1.84654e-30
1051 8 0.001 0.0125001 0 -0.0475 2.7719e-25 0 -2.11112e-13 0 1.84654e-30
1201 9 0.001 0.0174999 0 -0.0475 -2.7719e-25 0 -2.11112e-13 0 1.84654e-30
1351 10 0.001 0.0224999 0 -0.0475 -2.7719e-25 0 -2.11112e-13 0 1.84654e-30
2 1 0.001 -0.0224999 0 -0.0468624 2.7719e-25 0 -3.67743e-12 0 6.29497e-28
3 1 0.001 -0.0224999 0 -0.0462248 2.7719e-25 0 6.81158e-12 0 9.82406e-28
4 1 0.001 -0.0224999 0 -0.0455872 2.7719e-25 0 -2.6737e-12 0 3.57324e-28
152 2 0.001 -0.0174999 0 -0.0468624 2.7719e-25 0 -3.67743e-12 0 6.29497e-28
153 2 0.001 -0.0174999 0 -0.0462248 2.7719e-25 0 6.81158e-12 0 9.82406e-28
154 2 0.001 -0.0174999 0 -0.0455872 2.7719e-25 0 -2.6737e-12 0 3.57324e-28
302 3 0.001 -0.0125001 0 -0.0468624 -2.7719e-25 0 -3.67743e-12 0 6.29497e-28
303 3 0.001 -0.0125001 0 -0.0462248 -2.7719e-25 0 6.81158e-12 0 9.82406e-28
304 3 0.001 -0.0125001 0 -0.0455872 -2.7719e-25 0 -2.6737e-12 0 3.57324e-28
452 4 0.001 -0.00750009 0 -0.0468624 -2.7719e-25 0 -3.67743e-12 0 6.29497e-28
453 4 0.001 -0.00750009 0 -0.0462248 -2.7719e-25 0 6.81158e-12 0 9.82406e-28
454 4 0.001 -0.00750009 0 -0.0455872 -2.7719e-25 0 -2.6737e-12 0 3.57324e-28
602 5 0.001 -0.00250009 0 -0.0468624 -2.7719e-25 0 -3.67743e-12 0 6.29497e-28
603 5 0.001 -0.00250009 0 -0.0462248 -2.7719e-25 0 6.81158e-12 0 9.82406e-28
604 5 0.001 -0.00250009 0 -0.0455872 -2.7719e-25 0 -2.6737e-12 0 3.57324e-28
752 6 0.001 0.00250009 0 -0.0468624 2.7719e-25 0 -3.67743e-12 0 6.29497e-28
753 6 0.001 0.00250009 0 -0.0462248 2.7719e-25 0 6.81158e-12 0 9.82406e-28
754 6 0.001 0.00250009 0 -0.0455872 2.7719e-25 0 -2.6737e-12 0 3.57324e-28
902 7 0.001 0.00749991 0 -0.0468624 -2.7719e-25 0 -3.67743e-12 0 6.29497e-28
903 7 0.001 0.00749991 0 -0.0462248 -2.7719e-25 0 6.81158e-12 0 9.82406e-28
904 7 0.001 0.00749991 0 -0.0455872 -2.7719e-25 0 -2.6737e-12 0 3.57324e-28
1052 8 0.001 0.0125001 0 -0.0468624 2.7719e-25 0 -3.67743e-12 0 6.29497e-28
1053 8 0.001 0.0125001 0 -0.0462248 2.7719e-25 0 6.81158e-12 0 9.82406e-28
1054 8 0.001 0.0125001 0 -0.0455872 2.7719e-25 0 -2.6737e-12 0 3.57324e-28
1202 9 0.001 0.0174999 0 -0.0468624 -2.7719e-25 0 -3.67743e-12 0 6.29497e-28
1203 9 0.001 0.0174999 0 -0.0462248 -2.7719e-25 0 6.81158e-12 0 9.82406e-28
1204 9 0.001 0.0174999 0 -0.0455872 -2.7719e-25 0 -2.6737e-12 0 3.57324e-28
1352 10 0.001 0.0224999 0 -0.0468624 -2.7719e-25 0 -3.67743e-12 0 6.29497e-28
1353 10 0.001 0.0224999 0 -0.0462248 -2.7719e-25 0 6.81158e-12 0 9.82406e-28
1354 10 0.001 0.0224999 0 -0.0455872 -2.7719e-25 0 -2.6737e-12 0 3.57324e-28
5 1 0.001 -0.0224999 0 -0.0449497 2.7719e-25 0 -2.09154e-13 0 2.6351e-30
6 1 0.001 -0.0224999 0 -0.0443121 2.7719e-25 0 -3.05069e-12 0 3.76375e-28
155 2 0.001 -0.0174999 0 -0.0449497 2.7719e-25 0 -2.09154e-13 0 2.6351e-30
156 2 0.001 -0.0174999 0 -0.0443121 2.7719e-25 0 -3.05069e-12 0 3.76375e-28
305 3 0.001 -0.0125001 0 -0.0449497 -2.7719e-25 0 -2.09154e-13 0 2.6351e-30
306 3 0.001 -0.0125001 0 -0.0443121 -2.7719e-25 0 -3.05069e-12 0 3.76375e-28
455 4 0.001 -0.00750009 0 -0.0449497 -2.7719e-25 0 -2.09154e-13 0 2.6351e-30
456 4 0.001 -0.00750009 0 -0.0443121 -2.7719e-25 0 -3.05069e-12 0 3.76375e-28
605 5 0.001 -0.00250009 0 -0.0449497 -2.7719e-25 0 -2.09154e-13 0 2.6351e-30
606 5 0.001 -0.00250009 0 -0.0443121 -2.7719e-25 0 -3.05069e-12 0 3.76375e-28
755 6 0.001 0.00250009 0 -0.0449497 2.7719e-25 0 -2.09154e-13 0 2.6351e-30
756 6 0.001 0.00250009 0 -0.0443121 2.7719e-25 0 -3.05069e-12 0 3.76375e-28
905 7 0.001 0.00749991 0 -0.0449497 -2.7719e-25 0 -2.09154e-13 0 2.6351e-30
906 7 0.001 0.00749991 0 -0.0443121 -2.7719e-25 0 -3.05069e-12 0 3.76375e-28
1055 8 0.001 0.0125001 0 -0.0449497 2.7719e-25 0 -2.09154e-13 0 2.6351e-30
1056 8 0.001 0.0125001 0 -0.0443121 2.7719e-25 0 -3.05069e-12 0 3.76375e-28
1205 9 0.001 0.0174999 0 -0.0449497 -2.7719e-25 0 -2.09154e-13 0 2.6351e-30
1206 9 0.001 0.0174999 0 -0.0443121 -2.7719e-25 0 -3.05069e-12 0 3.76375e-28
1355 10 0.001 0.0224999 0 -0.0449497 -2.7719e-25 0 -2.09154e-13 0 2.6351e-30
1356 10 0.001 0.0224999 0 -0.0443121 -2.7719e-25 0 -3.05069e-12 0 3.76375e-28
7 1 0.001 -0.0224999 0 -0.0436745 2.7719e-25 0 5.13931e-12 0 5.64525e-28
8 1 0.001 -0.0224999 0 -0.0430369 2.7719e-25 0 -4.13202e-14 0 3.69116e-28
157 2 0.001 -0.0174999 0 -0.0436745 2.7719e-25 0 5.13931e-12 0 5.64525e-28
158 2 0.001 -0.0174999 0 -0.0430369 2.7719e-25 0 -4.13202e-14 0 3.69116e-28
307 3 0.001 -0.0125001 0 -0.0436745 -2.7719e-25 0 5.13931e-12 0 5.64525e-28
308 3 0.001 -0.0125001 0 -0.0430369 -2.7719e-25 0 -4.13202e-14 0 3.69116e-28
457 4 0.001 -0.00750009 0 -0.0436745 -2.7719e-25 0 5.13931e-12 0 5.64525e-28
458 4 0.001 -0.00750009 0 -0.0430369 -2.7719e-25 0 -4.13202e-14 0 3.69116e-28
607 5 0.001 -0.00250009 0 -0.0436745 -2.7719e-25 0 5.13931e-12 0 5.64525e-28
608 5 0.001 -0.00250009 0 -0.0430369 -2.7719e-25 0 -4.13202e-14 0 3.69116e-28
757 6 0.001 0.00250009 0 -0.0436745 2.7719e-25 0 5.13931e-12 0 5.64525e-28
758 6 0.001 0.00250009 0 -0.0430369 2.7719e-25 0 -4.13202e-14 0 3.69116e-28
907 7 0.001 0.00749991 0 -0.0436745 -2.7719e-25 0 5.13931e-12 0 5.64525e-28
908 7 0.001 0.00749991 0 -0.0430369 -2.7719e-25 0 -4.13202e-14 0 3.69116e-28
1057 8 0.001 0.0125001 0 -0.0436745 2.7719e-25 0 5.13931e-12 0 5.64525e-28
1058 8 0.001 0.0125001 0 -0.0430369 2.7719e-25 0 -4.13202e-14 0 3.69116e-28
1207 9 0.001 0.0174999 0 -0.0436745 -2.7719e-25 0 5.13931e-12 0 5.64525e-28
1208 9 0.001 0.0174999 0 -0.0430369 -2.7719e-25 0 -4.13202e-14 0 3.69116e-28
1357 10 0.001 0.0224999 0 -0.0436745 -2.7719e-25 0 5.13931e-12 0 5.64525e-28
1358 10 0.001 0.0224999 0 -0.0430369 -2.7719e-25 0 -4.13202e-14 0 3.69116e-28
9 1 0.001 -0.0224999 0 -0.0423993 2.7719e-25 0 -6.47805e-12 0 9.80883e-28
10 1 0.001 -0.0224999 0 -0.0417617 2.7719e-25 0 8.98461e-12 0 1.67644e-27
11 1 0.001 -0.0224999 0 -0.0411242 2.7719e-25 0 -7.18629e-12 0 1.15555e-27
159 2 0.001 -0.0174999 0 -0.0423993 2.7719e-25 0 -6.47805e-12 0 9.80883e-28
160 2 0.001 -0.0174999 0 -0.0417617 2.7719e-25 0 8.98461e-12 0 1.67644e-27
161 2 0.001 -0.0174999 0 -0.0411242 2.7719e-25 0 -7.18629e-12 0 1.15555e-27
309 3 0.001 -0.0125001 0 -0.0423993 -2.7719e-25 0 -6.47805e-12 0 9.80883e-28
310 3 0.001 -0.0125001 0 -0.0417617 -2.7719e-25 0 8.98461e-12 0 1.67644e-27
311 3 0.001 -0.0125001 0 -0.0411242 -2.7719e-25 0 -7.18629e-12 0 1.15555e-27
459 4 0.001 -0.00750009 0 -0.0423993 -2.7719e-25 0 -6.47805e-12 0 9.80883e-28
460 4 0.001 -0.00750009 0 -0.0417617 -2.7719e-25 0 8.98461e-12 0 1.67644e-27
461 4 0.001 -0.00750009 0 -0.0411242 -2.7719e-25 0 -7.18629e-12 0 1.15555e-27
609 5 0.001 -0.00250009 0 -0.0423993 -2.7719e-25 0 -6.47805e-12 0 9.80883e-28
610 5 0.001 -0.00250009 0 -0.0417617 -2.7719e-25 0 8.98461e-12 0 1.67644e-27
611 5 0.001 -0.00250009 0 -0.0411242 -2.7719e-25 0 -7.18629e-12 0 1.15555e-27
759 6 0.001 0.00250009 0 -0.0423993 2.7719e-25 0 -6.47805e-12 0 9.80883e-28
760 6 0.001 0.00250009 0 -0.0417617 2.7719e-25 0 8.98461e-12 0 1.67644e-27
761 6 0.001 0.00250009 0 -0.0411242 2.7719e-25 0 -7.18629e-12 0 1.15555e-27
909 7 0.001 0.00749991 0 -0.0423993 -2.7719e-25 0 -6.47805e-12 0 9.80883e-28
910 7 0.001 0.00749991 0 -0.0417617 -2.7719e-25 0 8.98461e-12 0 1.67644e-27
911 7 0.001 0.00749991 0 -0.0411242 -2.7719e-25 0 -7.18629e-12 0 1.15555e-27
1059 8 0.001 0.0125001 0 -0.0423993 2.7719e-25 0 -6.47805e-12 0 9.80883e-28
1060 8 0.001 0.0125001 0 -0.0417617 2.7719e-25 0 8.98461e-12 0 1.67644e-27
1061 8 0.001 0.0125001 0 -0.0411242 2.7719e-25 0 -7.18629e-12 0 1.15555e-27
1209 9 0.001 0.0174999 0 -0.0423993 -2.7719e-25 0 -6.47805e-12 0 9.80883e-28
1210 9 0.001 0.0174999 0 -0.0417617 -2.7719e-25 0 8.98461e-12 0 1.67644e-27
1211 9 0.001 0.0174999 0 -0.0411242 -2.7719e-25 0 -7.18629e-12 0 1.15555e-27
1359 10 0.001 0.0224999 0 -0.0423993 -2.7719e-25 0 -6.47805e-12 0 9.80883e-28
1360 10 0.001 0.0224999 0 -0.0417617 -2.7719e-25 0 8.98461e-12 0 1.67644e-27
1361 10 0.001 0.0224999 0 -0.0411242 -2.7719e-25 0 -7.18629e-12 0 1.15555e-27
12 1 0.001 -0.0224999 0 -0.0404866 2.7719e-25 0 4.97374e-12 0 5.14249e-28
13 1 0.001 -0.0224999 0 -0.039849 2.7719e-25 0 -3.42771e-12 0 2.80633e-28
162 2 0.001 -0.0174999 0 -0.0404866 2.7719e-25 0 4.97374e-12 0 5.14249e-28
163 2 0.001 -0.0174999 0 -0.039849 2.7719e-25 0 -3.42771e-12 0 2.80633e-28
312 3 0.001 -0.0125001 0 -0.0404866 -2.7719e-25 0 4.97374e-12 0 5.14249e-28
313 3 0.001 -0.0125001 0 -0.039849 -2.7719e-25 0 -3.42771e-12 0 2.80633e-28
462 4 0.001 -0.00750009 0 -0.0404866 -2.7719e-25 0 4.97374e-12 0 5.14249e-28
463 4 0.001 -0.00750009 0 -0.039849 -2.7719e-25 0 -3.42771e-12 0 2.80633e-28
612 5 0.001 -0.00250009 0 -0.0404866 -2.7719e-25 0 4.97374e-12 0 5.14249e-28
613 5 0.001 -0.00250009 0 -0.039849 -2.7719e-25 0 -3.42771e-12 0 2.80633e-28
762 6 0.001 0.00250009 0 -0.0404866 2.7719e-25 0 4.97374e-12 0 5.14249e-28
763 6 0.001 0.00250009 0 -0.039849 2.7719e-25 0 -3.42771e-12 0 2.80633e-28
912 7 0.001 0.00749991 0 -0.0404866 -2.7719e-25 0 4.97374e-12 0 5.14249e-28
913 7 0.001 0.00749991 0 -0.039849 -2.7719e-25 0 -3.42771e-12 0 2.80633e-28
1062 8 0.001 0.0125001 0 -0.0404866 2.7719e-25 0 4.97374e-12 0 5.14249e-28
1063 8 0.001 0.0125001 0 -0.039849 2.7719e-25 0 -3.42771e-12 0 2.80633e-28
1212 9 0.001 0.0174999 0 -0.0404866 -2.7719e-25 0 4.97374e-12 0 5.14249e-28
1213 9 0.001 0.0174999 0 -0.039849 -2.7719e-25 0 -3.42771e-12 0 2.80633e-28
1362 10 0.001 0.0224999 0 -0.0404866 -2.7719e-25 0 4.97374e-12 0 5.14249e-28
1363 10 0.001 0.0224999 0 -0.039849 -2.7719e-25 0 -3.42771e-12 0 2.80633e-28
14 1 0.001 -0.0224999 0 -0.0392114 2.7719e-25 0 2.04822e-12 0 8.70749e-29
15 1 0.001 -0.0224999 0 -0.0385738 2.7719e-25 0 -3.77062e-13 0 5.78046e-29
16 1 0.001 -0.0224999 0 -0.0379362 2.7719e-25 0 -3.84397e-12 0 4.46562e-28
164 2 0.001 -0.0174999 0 -0.0392114 2.7719e-25 0 2.04822e-12 0 8.70749e-29
165 2 0.001 -0.0174999 0 -0.0385738 2.7719e-25 0 -3.77062e-13 0 5.78046e-29
166 2 0.001 -0.0174999 0 -0.0379362 2.7719e-25 0 -3.84397e-12 0 4.46562e-28
314 3 0.001 -0.0125001 0 -0.0392114 -2.7719e-25 0 2.04822e-12 0 8.70749e-29
315 3 0.001 -0.0125001 0 -0.0385738 -2.7719e-25 0 -3.77062e-13 0 5.78046e-29
316 3 0.001 -0.0125001 0 -0.0379362 -2.7719e-25 0 -3.84397e-12 0 4.46562e-28
464 4 0.001 -0.00750009 0 -0.0392114 -2.7719e-25 0 2.04822e-12 0 8.70749e-29
465 4 0.001 -0.00750009 0 -0.0385738 -2.7719e-25 0 -3.77062e-13 0 5.78046e-29
466 4 0.001 -0.00750009 0 -0.0379362 -2.7719e-25 0 -3.84397e-12 0 4.46562e-28
614 5 0.001 -0.00250009 0 -0.0392114 -2.7719e-25 0 2.04822e-12 0 8.70749e-29
615 5 0.001 -0.00250009 0 -0.0385738 -2.7719e-25 0 -3.77062e-13 0 5.78046e-29
616 5 0.001 -0.00250009 0 -0.0379362 -2.7719e-25 0 -3.84397e-12 0 4.46562e-28
764 6 0.001 0.00250009 0 -0.0392114 2.7719e-25 0 2.04822e-12 0 8.70749e-29
765 6 0.001 0.00250009 0 -0.0385738 2.7719e-25 0 -3.77062e-13 0 5.78046e-29
766 6 0.001 0.00250009 0 -0.0379362 2.7719e-25 0 -3.84397e-12 0 4.46562e-28
914 7 0.001 0.00749991 0 -0.0392114 -2.7719e-25 0 2.04822e-12 0 8.70749e-29
915 7 0.001 0.00749991 0 -0.0385738 -2.7719e-25 0 -3.77062e-13 0 5.78046e-29
916 7 0.001 0.00749991 0 -0.0379362 -2.7719e-25 0 -3.84397e-12 0 4.46562e-28
1064 8 0.001 0.0125001 0 -0.0392114 2.7719e-25 0 2.04822e-12 0 8.70749e-29
1065 8 0.001 0.0125001 0 -0.0385738 2.7719e-25 0 -3.77062e-13 0 5.78046e-29
1066 8 0.001 0.0125001 0 -0.0379362 2.7719e-25 0 -3.84397e-12 0 4.46562e-28
1214 9 0.001 0.0174999 0 -0.0392114 -2.7719e-25 0 2.04822e-12 0 8.70749e-29
1215 9 0.001 0.0174999 0 -0.0385738 -2.7719e-25 0 -3.77062e-13 0 5.78046e-29
1216 9 0.001 0.0174999 0 -0.0379362 -2.7719e-25 0 -3.84397e-12 0 4.46562e-28
1364 10 0.001 0.0224999 0 -0.0392114 -2.7719e-25 0 2.04822e-12 0 8.70749e-29
1365 10 0.001 0.0224999 0 -0.0385738 -2.7719e-25 0 -3.77062e-13 0 5.78046e-29
1366 10 0.001 0.0224999 0 -0.0379362 -2.7719e-25 0 -3.84397e-12 0 4.46562e-28
17 1 0.001 -0.0224999 0 -0.0372987 2.7719e-25 0 6.1006e-12 0 7.75038e-28
18 1 0.001 -0.0224999 0 -0.0366611 2.7719e-25 0 -5.64159e-12 0 6.60926e-28
167 2 0.001 -0.0174999 0 -0.0372987 2.7719e-25 0 6.1006e-12 0 7.75038e-28
168 2 0.001 -0.0174999 0 -0.0366611 2.7719e-25 0 -5.64159e-12 0 6.60926e-28
317 3 0.001 -0.0125001 0 -0.0372987 -2.7719e-25 0 6.1006e-12 0 7.75038e-28
318 3 0.001 -0.0125001 0 -0.0366611 -2.7719e-25 0 -5.64159e-12 0 6.60926e-28
467 4 0.001 -0.00750009 0 -0.0372987 -2.7719e-25 0 6.1006e-12 0 7.75038e-28
468 4 0.001 -0.00750009 0 -0.0366611 -2.7719e-25 0 -5.64159e-12 0 6.60926e-28
617 5 0.001 -0.00250009 0 -0.0372987 -2.7719e-25 0 6.1006e-12 0 7.75038e-28
618 5 0.001 -0.00250009 0 -0.0366611 -2.7719e-25 0 -5.64159e-12 0 6.60926e-28
767 6 0.001 0.00250009 0 -0.0372987 2.7719e-25 0 6.1006e-12 0 7.75038e-28
768 6 0.001 0.00250009 0 -0.0366611 2.7719e-25 0 -5.64159e-12 0 6.60926e-28
917 7 0.001 0.00749991 0 -0.0372987 -2.7719e-25 0 6.1006e-12 0 7.75038e-28
918 7 0.001 0.00749991 0 -0.0366611 -2.7719e-25 0 -5.64159e-12 0 6.60926e-28
1067 8 0.001 0.0125001 0 -0.0372987 2.7719e-25 0 6.1006e-12 0 7.75038e-28
1068 8 0.001 0.0125001 0 -0.0366611 2.7719e-25 0 -5.64159e-12 0 6.60926e-28
1217 9 0.001 0.0174999 0 -0.0372987 -2.7719e-25 0 6.1006e-12 0 7.75038e-28
1218 9 0.001 0.0174999 0 -0.0366611 -2.7719e-25 0 -5.64159e-12 0 6.60926e-28
1367 10 0.001 0.0224999 0 -0.0372987 -2.7719e-25 0 6.1006e-12 0 7.75038e-28
1368 10 0.001 0.0224999 0 -0.0366611 -2.7719e-25 0 -5.64159e-12 0 6.60926e-28
19 1 0.001 -0.0224999 0 -0.0360235 2.7719e-25 0 6.60295e-12 0 9.29223e-28
20 1 0.001 -0.0224999 0 -0.0353859 2.7719e-25 0 -8.73448e-12 0 1.60618e-27
169 2 0.001 -0.0174999 0 -0.0360235 2.7719e-25 0 6.60295e-12 0 9.29223e-28
170 2 0.001 -0.0174999 0 -0.0353859 2.7719e-25 0 -8.73448e-12 0 1.60618e-27
319 3 0.001 -0.0125001 0 -0.0360235 -2.7719e-25 0 6.60295e-12 0 9.29223e-28
320 3 0.001 -0.0125001 0 -0.0353859 -2.7719e-25 0 -8.73448e-12 0 1.60618e-27
469 4 0.001 -0.00750009 0 -0.0360235 -2.7719e-25 0 6.60295e-12 0 9.29223e-28
470 4 0.001 -0.00750009 0 -0.0353859 -2.7719e-25 0 -8.73448e-12 0 1.60618e-27
619 5 0.001 -0.00250009 0 -0.0360235 -2.7719e-25 0 6.60295e-12 0 9.29223e-28
620 5 0.001 -0.00250009 0 -0.0353859 -2.7719e-25 0 -8.73448e-12 0 1.60618e-27
769 6 0.001 0.00250009 0 -0.0360235 2.7719e-25 0 6.60295e-12 0 9.29223e-28
770 6 0.001 0.00250009 0 -0.0353859 2.7719e-25 0 -8.73448e-12 0 1.60618e-27
919 7 0.001 0.00749991 0 -0.0360235 -2.7719e-25 0 6.60295e-12 0 9.29223e-28
920 7 0.001 0.00749991 0 -0.0353859 -2.7719e-25 0 -8.73448e-12 0 1.60618e-27
1069 8 0.001 0.0125001 0 -0.0360235 2.7719e-25 0 6.60295e-12 0 9.29223e-28
1070 8 0.001 0.0125001 0 -0.0353859 2.7719e-25 0 -8.73448e-12 0 1.60618e-27
1219 9 0.001 0.0174999 0 -0.0360235 -2.7719e-25 0 6.60295e-12 0 9.29223e-28
1220 9 0.001 0.0174999 0 -0.0353859 -2.7719e-25 0 -8.73448e-12 0 1.60618e-27
1369 10 0.001 0.0224999 0 -0.0360235 -2.7719e-25 0 6.60295e-12 0 9.29223e-28
1370 10 0.001 0.0224999 0 -0.0353859 -2.7719e-25 0 -8.73448e-12 0 1.60618e-27
21 1 0.001 -0.0224999 0 -0.0347483 2.7719e-25 0 4.84833e-12 0 9.93273e-28
22 1 0.001 -0.0224999 0 -0.0341107 2.7719e-25 0 1.08517e-12 0 4.52197e-29
23 1 0.001 -0.0224999 0 -0.0334732 2.7719e-25 0 -2.08146e-13 0 7.40029e-29
171 2 0.001 -0.0174999 0 -0.0347483 2.7719e-25 0 4.84833e-12 0 9.93273e-28
172 2 0.001 -0.0174999 0 -0.0341107 2.7719e-25 0 1.08517e-12 0 4.52197e-29
173 2 0.001 -0.0174999 0 -0.0334732 2.7719e-25 0 -2.08146e-13 0 7.40029e-29
321 3 0.001 -0.0125001 0 -0.0347483 -2.7719e-25 0 4.84833e-12 0 9.93273e-28
322 3 0.001 -0.0125001 0 -0.0341107 -2.7719e-25 0 1.08517e-12 0 4.52197e-29
323 3 0.001 -0.0125001 0 -0.0334732 -2.7719e-25 0 -2.08146e-13 0 7.40029e-29
471 4 0.001 -0.00750009 0 -0.0347483 -2.7719e-25 0 4.84833e-12 0 9.93273e-28
472 4 0.001 -0.00750009 0 -0.0341107 -2.7719e-25 0 1.08517e-12 0 4.52197e-29
473 4 0.001 -0.00750009 0 -0.0334732 -2.7719e-25 0 -2.08146e-13 0 7.40029e-29
621 5 0.001 -0.00250009 0 -0.0347483 -2.7719e-25 0 4.84833e-12 0 9.93273e-28
622 5 0.001 -0.00250009 0 -0.0341107 -2.7719e-25 0 1.08517e-12 0 4.52197e-29
623 5 0.001 -0.00250009 0 -0.0334732 -2.7719e-25 0 -2.08146e-13 0 7.40029e-29
771 6 0.001 0.00250009 0 -0.0347483 2.7719e-25 0 4.84833e-12 0 9.93273e-28
772 6 0.001 0.00250009 0 -0.0341107 2.7719e-25 0 1.08517e-12 0 4.52197e-29
773 6 0.001 0.00250009 0 -0.0334732 2.7719e-25 0 -2.08146e-13 0 7.40029e-29
921 7 0.001 0.00749991 0 -0.0347483 -2.7719e-25 0 4.84833e-12 0 9.93273e-28
922 7 0.001 0.00749991 0 -0.0341107 -2.7719e-25 0 1.08517e-12 0 4.52197e-29
923 7 0.001 0.00749991 0 -0.0334732 -2.7719e-25 0 -2.08146e-13 0 7.40029e-29
1071 8 0.001 0.0125001 0 -0.0347483 2.7719e-25 0 4.84833e-12 0 9.93273e-28
1072 8 0.001 0.0125001 0 -0.0341107 2.7719e-25 0 1.08517e-12 0 4.52197e-29
1073 8 0.001 0.0125001 0 -0.0334732 2.7719e-25 0 -2.08146e-13 0 7.40029e-29
1221 9 0.001 0.0174999 0 -0.0347483 -2.7719e-25 0 4.84833e-12 0 9.93273e-28
1222 9 0.001 0.0174999 0 -0.0341107 -2.7719e-25 0 1.08517e-12 0 4.52197e-29
1223 9 0.001 0.0174999 0 -0.0334732 -2.7719e-25 0 -2.08146e-13 0 7.40029e-29
1371 10 0.001 0.0224999 0 -0.0347483 -2.7719e-25 0 4.84833e-12 0 9.93273e-28
1372 10 0.001 0.0224999 0 -0.0341107 -2.7719e-25 0 1.08517e-12 0 4.52197e-29
1373 10 0.001 0.0224999 0 -0.0334732 -2.7719e-25 0 -2.08146e-13 0 7.40029e-29
24 1 0.001 -0.0224999 0 -0.0328356 2.7719e-25 0 -1.42084e-12 0 4.31672e-29
25 1 0.001 -0.0224999 0 -0.032198 2.7719e-25 0 8.35695e-13 0 1.68738e-29
174 2 0.001 -0.0174999 0 -0.0328356 2.7719e-25 0 -1.42084e-12 0 4.31672e-29
175 2 0.001 -0.0174999 0 -0.032198 2.7719e-25 0 8.35695e-13 0 1.68738e-29
324 3 0.001 -0.0125001 0 -0.0328356 -2.7719e-25 0 -1.42084e-12 0 4.31672e-29
325 3 0.001 -0.0125001 0 -0.032198 -2.7719e-25 0 8.35695e-13 0 1.68738e-29
474 4 0.001 -0.00750009 0 -0.0328356 -2.7719e-25 0 -1.42084e-12 0 4.31672e-29
475 4 0.001 -0.00750009 0 -0.032198 -2.7719e-25 0 8.35695e-13 0 1.68738e-29
624 5 0.001 -0.00250009 0 -0.0328356 -2.7719e-25 0 -1.42084e-12 0 4.31672e-29
625 5 0.001 -0.00250009 0 -0.032198 -2.7719e-25 0 8.35695e-13 0 1.68738e-29
774 6 0.001 0.00250009 0 -0.0328356 2.7719e-25 0 -1.42084e-12 0 4.31672e-29
775 6 0.001 0.00250009 0 -0.032198 2.7719e-25 0 8.35695e-13 0 1.68738e-29
924 7 0.001 0.00749991 0 -0.0328356 -2.7719e-25 0 -1.42084e-12 0 4.31672e-29
925 7 0.001 0.00749991 0 -0.032198 -2.7719e-25 0 8.35695e-13 0 1.68738e-29
1074 8 0.001 0.0125001 0 -0.0328356 2.7719e-25 0 -1.42084e-12 0 4.31672e-29
1075 8 0.001 0.0125001 0 -0.032198 2.7719e-25 0 8.35695e-13 0 1.68738e-29
1224 9 0.001 0.0174999 0 -0.0328356 -2.7719e-25 0 -1.42084e-12 0 4.31672e-29
1225 9 0.001 0.0174999 0 -0.032198 -2.7719e-25 0 8.35695e-13 0 1.68738e-29
1374 10 0.001 0.0224999 0 -0.0328356 -2.7719e-25 0 -1.42084e-12 0 4.31672e-29
1375 10 0.001 0.0224999 0 -0.032198 -2.7719e-25 0 8.35695e-13 0 1.68738e-29
26 1 0.001 -0.0224999 0 -0.0315604 2.7719e-25 0 -2.91313e-13 0 2.64869e-30
27 1 0.001 -0.0224999 0 -0.0309228 2.7719e-25 0 3.54357e-13 0 4.10654e-30
176 2 0.001 -0.0174999 0 -0.0315604 2.7719e-25 0 -2.91313e-13 0 2.64869e-30
177 2 0.001 -0.0174999 0 -0.0309228 2.7719e-25 0 3.54357e-13 0 4.10654e-30
326 3 0.001 -0.0125001 0 -0.0315604 -2.7719e-25 0 -2.91313e-13 0 2.64869e-30
327 3 0.001 -0.0125001 0 -0.0309228 -2.7719e-25 0 3.54357e-13 0 4.10654e-30
476 4 0.001 -0.00750009 0 -0.0315604 -2.7719e-25 0 -2.91313e-13 0 2.64869e-30
477 4 0.001 -0.00750009 0 -0.0309228 -2.7719e-25 0 3.54357e-13 0 4.10654e-30
626 5 0.001 -0.00250009 0 -0.0315604 -2.7719e-25 0 -2.91313e-13 0 2.64869e-30
627 5 0.001 -0.00250009 0 -0.0309228 -2.7719e-25 0 3.54357e-13 0 4.10654e-30
776 6 0.001 0.00250009 0 -0.0315604 2.7719e-25 0 -2.91313e-13 0 2.64869e-30
777 6 0.001 0.00250009 0 -0.0309228 2.7719e-25 0 3.54357e-13 0 4.10654e-30
926 7 0.001 0.00749991 0 -0.0315604 -2.7719e-25 0 -2.91313e-13 0 2.64869e-30
927 7 0.001 0.00749991 0 -0.0309228 -2.7719e-25 0 3.54357e-13 0 4.10654e-30
1076 8 0.001 0.0125001 0 -0.0315604 2.7719e-25 0 -2.91313e-13 0 2.64869e-30
1077 8 0.001 0.0125001 0 -0.0309228 2.7719e-25 0 3.54357e-13 0 4.10654e-30
1226 9 0.001 0.0174999 0 -0.0315604 -2.7719e-25 0 -2.91313e-13 0 2.64869e-30
1227 9 0.001 0.0174999 0 -0.0309228 -2.7719e-25 0 3.54357e-13 0 4.10654e-30
1376 10 0.001 0.0224999 0 -0.0315604 -2.7719e-25 0 -2.91313e-13 0 2.64869e-30
1377 10 0.001 0.0224999 0 -0.0309228 -2.7719e-25 0 3.54357e-13 0 4.10654e-30
28 1 0.001 -0.0224999 0 -0.0302852 2.7719e-25 0 1.08688e-12 0 8.51583e-29
29 1 0.001 -0.0224999 0 -0.0296477 2.7719e-25 0 -1.83898e-12 0 8.91954e-29
30 1 0.001 -0.0224999 0 -0.0290101 2.7719e-25 0 7.52182e-13 0 1.20913e-29
178 2 0.001 -0.0174999 0 -0.0302852 2.7719e-25 0 1.08688e-12 0 8.51583e-29
179 2 0.001 -0.0174999 0 -0.0296477 2.7719e-25 0 -1.83898e-12 0 8.91954e-29
180 2 0.001 -0.0174999 0 -0.0290101 2.7719e-25 0 7.52182e-13 0 1.20913e-29
328 3 0.001 -0.0125001 0 -0.0302852 -2.7719e-25 0 1.08688e-12 0 8.51583e-29
329 3 0.001 -0.0125001 0 -0.0296477 -2.7719e-25 0 -1.83898e-12 0 8.91954e-29
330 3 0.001 -0.0125001 0 -0.0290101 -2.7719e-25 0 7.52182e-13 0 1.20913e-29
478 4 0.001 -0.00750009 0 -0.0302852 -2.7719e-25 0 1.08688e-12 0 8.51583e-29
479 4 0.001 -0.00750009 0 -0.0296477 -2.7719e-25 0 -1.83898e-12 0 8.91954e-29
480 4 0.001 -0.00750009 0 -0.0290101 -2.7719e-25 0 7.52182e-13 0 1.20913e-29
628 5 0.001 -0.00250009 0 -0.0302852 -2.7719e-25 0 1.08688e-12 0 8.51583e-29
629 5 0.001 -0.00250009 0 -0.0296477 -2.7719e-25 0 -1.83898e-12 0 8.91954e-29
630 5 0.001 -0.00250009 0 -0.0290101 -2.7719e-25 0 7.52182e-13 0 1.20913e-29
778 6 0.001 0.00250009 0 -0.0302852 2.7719e-25 0 1.08688e-12 0 8.51583e-29
779 6 0.001 0.00250009 0 -0.0296477 2.7719e-25 0 -1.83898e-12 0 8.91954e-29
780 6 0.001 0.00250009 0 -0.0290101 2.7719e-25 0 7.52182e-13 0 1.20913e-29
928 7 0.001 0.00749991 0 -0.0302852 -2.7719e-25 0 1.08688e-12 0 8.51583e-29
929 7 0.001 0.00749991 0 -0.0296477 -2.7719e-25 0 -1.83898e-12 0 8.91954e-29
930 7 0.001 0.00749991 0 -0.0290101 -2.7719e-25 0 7.52182e-13 0 1.20913e-29
1078 8 0.001 0.0125001 0 -0.0302852 2.7719e-25 0 1.08688e-12 0 8.51583e-29
1079 8 0.001 0.0125001 0 -0.0296477 2.7719e-25 0 -1.83898e-12 0 8.91954e-29
1080 8 0.001 0.0125001 0 -0.0290101 2.7719e-25 0 7.52182e-13 0 1.20913e-29
1228 9 0.001 0.0174999 0 -0.0302852 -2.7719e-25 0 1.08688e-12 0 8.51583e-29
1229 9 0.001 0.0174999 0 -0.0296477 -2.7719e-25 0 -1.83898e-12 0 8.91954e-29
1230 9 0.001 0.0174999 0 -0.0290101 -2.7719e-25 0 7.52182e-13 0 1.20913e-29
1378 10 0.001 0.0224999 0 -0.0302852 -2.7719e-25 0 1.08688e-12 0 8.51583e-29
1379 10 0.001 0.0224999 0 -0.0296477 -2.7719e-25 0 -1.83898e-12 0 8.91954e-29
1380 10 0.001 0.0224999 0 -0.0290101 -2.7719e-25 0 7.52182e-13 0 1.20913e-29
31 1 0.001 -0.0224999 0 -0.0283725 2.7719e-25 0 -3.51125e-12 0 4.28812e-28
32 1 0.001 -0.0224999 0 -0.0277349 2.7719e-25 0 4.9729e-12 0 5.55442e-28
181 2 0.001 -0.0174999 0 -0.0283725 2.7719e-25 0 -3.51125e-12 0 4.28812e-28
182 2 0.001 -0.0174999 0 -0.0277349 2.7719e-25 0 4.9729e-12 0 5.55442e-28
331 3 0.001 -0.0125001 0 -0.0283725 -2.7719e-25 0 -3.51125e-12 0 4.28812e-28
332 3 0.001 -0.0125001 0 -0.0277349 -2.7719e-25 0 4.9729e-12 0 5.55442e-28
481 4 0.001 -0.00750009 0 -0.0283725 -2.7719e-25 0 -3.51125e-12 0 4.28812e-28
482 4 0.001 -0.00750009 0 -0.0277349 -2.7719e-25 0 4.9729e-12 0 5.55442e-28
631 5 0.001 -0.00250009 0 -0.0283725 -2.7719e-25 0 -3.51125e-12 0 4.28812e-28
632 5 0.001 -0.00250009 0 -0.0277349 -2.7719e-25 0 4.9729e-12 0 5.55442e-28
781 6 0.001 0.00250009 0 -0.0283725 2.7719e-25 0 -3.51125e-12 0 4.28812e-28
782 6 0.001 0.00250009 0 -0.0277349 2.7719e-25 0 4.9729e-12 0 5.55442e-28
931 7 0.001 0.00749991 0 -0.0283725 -2.7719e-25 0 -3.51125e-12 0 4.28812e-28
932 7 0.001 0.00749991 0 -0.0277349 -2.7719e-25 0 4.9729e-12 0 5.55442e-28
1081 8 0.001 0.0125001 0 -0.0283725 2.7719e-25 0 -3.51125e-12 0 4.28812e-28
1082 8 0.001 0.0125001 0 -0.0277349 2.7719e-25 0 4.9729e-12 0 5.55442e-28
1231 9 0.001 0.0174999 0 -0.0283725 -2.7719e-25 0 -3.51125e-12 0 4.28812e-28
1232 9 0.001 0.0174999 0 -0.0277349 -2.7719e-25 0 4.9729e-12 0 5.55442e-28
1381 10 0.001 0.0224999 0 -0.0283725 -2.7719e-25 0 -3.51125e-12 0 4.28812e-28
1382 10 0.001 0.0224999 0 -0.0277349 -2.7719e-25 0 4.9729e-12 0 5.55442e-28
33 1 0.001 -0.0224999 0 -0.0270973 2.7719e-25 0 -2.84189e-12 0 1.77971e-28
34 1 0.001 -0.0224999 0 -0.0264597 2.7719e-25 0 3.40744e-12 0 2.74281e-28
35 1 0.001 -0.0224999 0 -0.0258221 2.7719e-25 0 -2.84341e-12 0 2.37488e-28
183 2 0.001 -0.0174999 0 -0.0270973 2.7719e-25 0 -2.84189e-12 0 1.77971e-28
184 2 0.001 -0.0174999 0 -0.0264597 2.7719e-25 0 3.40744e-12 0 2.74281e-28
185 2 0.001 -0.0174999 0 -0.0258221 2.7719e-25 0 -2.84341e-12 0 2.37488e-28
333 3 0.001 -0.0125001 0 -0.0270973 -2.7719e-25 0 -2.84189e-12 0 1.77971e-28
334 3 0.001 -0.0125001 0 -0.0264597 -2.7719e-25 0 3.40744e-12 0 2.74281e-28
335 3 0.001 -0.0125001 0 -0.0258221 -2.7719e-25 0 -2.84341e-12 0 2.37488e-28
483 4 0.001 -0.00750009 0 -0.0270973 -2.7719e-25 0 -2.84189e-12 0 1.77971e-28
484 4 0.001 -0.00750009 0 -0.0264597 -2.7719e-25 0 3.40744e-12 0 2.74281e-28
485 4 0.001 -0.00750009 0 -0.0258221 -2.7719e-25 0 -2.84341e-12 0 2.37488e-28
633 5 0.001 -0.00250009 0 -0.0270973 -2.7719e-25 0 -2.84189e-12 0 1.77971e-28
634 5 0.001 -0.00250009 0 -0.0264597 -2.7719e-25 0 3.40744e-12 0 2.74281e-28
635 5 0.001 -0.00250009 0 -0.0258221 -2.7719e-25 0 -2.84341e-12 0 2.37488e-28
783 6 0.001 0.00250009 0 -0.0270973 2.7719e-25 0 -2.84189e-12 0 1.77971e-28
784 6 0.001 0.00250009 0 -0.0264597 2.7719e-25 0 3.40744e-12 0 2.74281e-28
785 6 0.001 0.00250009 0 -0.0258221 2.7719e-25 0 -2.84341e-12 0 2.37488e-28
933 7 0.001 0.00749991 0 -0.0270973 -2.7719e-25 0 -2.84189e-12 0 1.77971e-28
934 7 0.001 0.00749991 0 -0.0264597 -2.7719e-25 0 3.40744e-12 0 2.74281e-28
935 7 0.001 0.00749991 0 -0.0258221 -2.7719e-25 0 -2.84341e-12 0 2.37488e-28
1083 8 0.001 0.0125001 0 -0.0270973 2.7719e-25 0 -2.84189e-12 0 1.77971e-28
1084 8 0.001 0.0125001 0 -0.0264597 2.7719e-25 0 3.40744e-12 0 2.74281e-28
1085 8 0.001 0.0125001 0 -0.0258221 2.7719e-25 0 -2.84341e-12 0 2.37488e-28
1233 9 0.001 0.0174999 0 -0.0270973 -2.7719e-25 0 -2.84189e-12 0 1.77971e-28
1234 9 0.001 0.0174999 0 -0.0264597 -2.7719e-25 0 3.40744e-12 0 2.74281e-28
1235 9 0.001 0.0174999 0 -0.0258221 -2.7719e-25 0 -2.84341e-12 0 2.37488e-28
1383 10 0.001 0.0224999 0 -0.0270973 -2.7719e-25 0 -2.84189e-12 0 1.77971e-28
1384 10 0.001 0.0224999 0 -0.0264597 -2.7719e-25 0 3.40744e-12 0 2.74281e-28
1385 10 0.001 0.0224999 0 -0.0258221 -2.7719e-25 0 -2.84341e-12 0 2.37488e-28
36 1 0.001 -0.0224999 0 -0.0251846 2.7719e-25 0 1.05432e-13 0 1.71286e-29
37 1 0.001 -0.0224999 0 -0.024547 2.7719e-25 0 5.42973e-13 0 7.47194e-30
186 2 0.001 -0.0174999 0 -0.0251846 2.7719e-25 0 1.05432e-13 0 1.71286e-29
187 2 0.001 -0.0174999 0 -0.024547 2.7719e-25 0 5.42973e-13 0 7.47194e-30
336 3 0.001 -0.0125001 0 -0.0251846 -2.7719e-25 0 1.05432e-13 0 1.71286e-29
337 3 0.001 -0.0125001 0 -0.024547 -2.7719e-25 0 5.42973e-13 0 7.47194e-30
486 4 0.001 -0.00750009 0 -0.0251846 -2.7719e-25 0 1.05432e-13 0 1.71286e-29
487 4 0.001 -0.00750009 0 -0.024547 -2.7719e-25 0 5.42973e-13 0 7.47194e-30
636 5 0.001 -0.00250009 0 -0.0251846 -2.7719e-25 0 1.05432e-13 0 1.71286e-29
637 5 0.001 -0.00250009 0 -0.024547 -2.7719e-25 0 5.42973e-13 0 7.47194e-30
786 6 0.001 0.00250009 0 -0.0251846 2.7719e-25 0 1.05432e-13 0 1.71286e-29
787 6 0.001 0.00250009 0 -0.024547 2.7719e-25 0 5.42973e-13 0 7.47194e-30
936 7 0.001 0.00749991 0 -0.0251846 -2.7719e-25 0 1.05432e-13 0 1.71286e-29
937 7 0.001 0.00749991 0 -0.024547 -2.7719e-25 0 5.42973e-13 0 7.47194e-30
1086 8 0.001 0.0125001 0 -0.0251846 2.7719e-25 0 1.05432e-13 0 1.71286e-29
1087 8 0.001 0.0125001 0 -0.024547 2.7719e-25 0 5.42973e-13 0 7.47194e-30
1236 9 0.001 0.0174999 0 -0.0251846 -2.7719e-25 0 1.05432e-13 0 1.71286e-29
1237 9 0.001 0.0174999 0 -0.024547 -2.7719e-25 0 5.42973e-13 0 7.47194e-30
1386 10 0.001 0.0224999 0 -0.0251846 -2.7719e-25 0 1.05432e-13 0 1.71286e-29
1387 10 0.001 0.0224999 0 -0.024547 -2.7719e-25 0 5.42973e-13 0 7.47194e-30
38 1 0.001 -0.0224999 0 -0.0239094 2.7719e-25 0 -2.28149e-13 0 1.16818e-30
39 1 0.001 -0.0224999 0 -0.0232718 2.7719e-25 0 2.91121e-13 0 2.08231e-30
188 2 0.001 -0.0174999 0 -0.0239094 2.7719e-25 0 -2.28149e-13 0 1.16818e-30
189 2 0.001 -0.0174999 0 -0.0232718 2.7719e-25 0 2.91121e-13 0 2.08231e-30
338 3 0.001 -0.0125001 0 -0.0239094 -2.7719e-25 0 -2.28149e-13 0 1.16818e-30
339 3 0.001 -0.0125001 0 -0.0232718 -2.7719e-25 0 2.91121e-13 0 2.08231e-30
488 4 0.001 -0.00750009 0 -0.0239094 -2.7719e-25 0 -2.28149e-13 0 1.16818e-30
489 4 0.001 -0.00750009 0 -0.0232718 -2.7719e-25 0 2.91121e-13 0 2.08231e-30
638 5 0.001 -0.00250009 0 -0.0239094 -2.7719e-25 0 -2.28149e-13 0 1.16818e-30
639 5 0.001 -0.00250009 0 -0.0232718 -2.7719e-25 0 2.91121e-13 0 2.08231e-30
788 6 0.001 0.00250009 0 -0.0239094 2.7719e-25 0 -2.28149e-13 0 1.16818e-30
789 6 0.001 0.00250009 0 -0.0232718 2.7719e-25 0 2.91121e-13 0 2.08231e-30
938 7 0.001 0.00749991 0 -0.0239094 -2.7719e-25 0 -2.28149e-13 0 1.16818e-30
939 7 0.001 0.00749991 0 -0.0232718 -2.7719e-25 0 2.91121e-13 0 2.08231e-30
1088 8 0.001 0.0125001 0 -0.0239094 2.7719e-25 0 -2.28149e-13 0 1.16818e-30
1089 8 0.001 0.0125001 0 -0.0232718 2.7719e-25 0 2.91121e-13 0 2.08231e-30
1238 9 0.001 0.0174999 0 -0.0239094 -2.7719e-25 0 -2.28149e-13 0 1.16818e-30
1239 9 0.001 0.0174999 0 -0.0232718 -2.7719e-25 0 2.91121e-13 0 2.08231e-30
1388 10 0.001 0.0224999 0 -0.0239094 -2.7719e-25 0 -2.28149e-13 0 1.16818e-30
1389 10 0.001 0.0224999 0 -0.0232718 -2.7719e-25 0 2.91121e-13 0 2.08231e-30