ITEM: TIMESTEP
5300000
ITEM: NUMBER OF ATOMS
1500
ITEM: BOX BOUNDS ff ff ff
-2.5000000000000001e-02 2.5000000000000001e-02
-5.0000000000000001e-03 5.0000000000000001e-03
-5.0000000000000003e-02 5.0000000000000003e-02
ITEM: ATOMS id type radius x y z fx fy fz c_bendingE c_stretchingE
1 1 0.001 -0.0224999 0 -0.0475 2.7719e-25 0 -3.26183e-12 0 4.41596e-28
151 2 0.001 -0.0174999 0 -0.0475 2.7719e-25 0 -3.26183e-12 0 4.41596e-28
301 3 0.001 -0.0125001 0 -0.0475 -2.7719e-25 0 -3.26183e-12 0 4.41596e-28
451 4 0.001 -0.00750005 0 -0.0475 -2.7719e-25 0 -3.26183e-12 0 4.41596e-28
601 5 0.001 -0.00250005 0 -0.0475 -2.7719e-25 0 -3.26183e-12 0 4.41596e-28
751 6 0.001 0.00250005 0 -0.0475 2.7719e-25 0 -3.26183e-12 0 4.41596e-28
901 7 0.001 0.00749995 0 -0.0475 -2.7719e-25 0 -3.26183e-12 0 4.41596e-28
1051 8 0.001 0.0125001 0 -0.0475 2.7719e-25 0 -3.26183e-12 0 4.41596e-28
1201 9 0.001 0.0174999 0 -0.0475 -2.7719e-25 0 -3.26183e-12 0 4.41596e-28
1351 10 0.001 0.0224999 0 -0.0475 -2.7719e-25 0 -3.26183e-12 0 4.41596e-28
2 1 0.001 -0.0224999 0 -0.0468624 2.7719e-25 0 8.46272e-14 0 8.6085e-28
3 1 0.001 -0.0224999 0 -0.0462248 2.7719e-25 0 5.97385e-12 0 7.44234e-28
4 1 0.001 -0.0224999 0 -0.0455872 2.7719e-25 0 -2.96621e-12 0 3.26167e-28
152 2 0.001 -0.0174999 0 -0.0468624 2.7719e-25 0 8.46272e-14 0 8.6085e-28
153 2 0.001 -0.0174999 0 -0.0462248 2.7719e-25 0 5.97385e-12 0 7.44234e-28
154 2 0.001 -0.0174999 0 -0.0455872 2.7719e-25 0 -2.96621e-12 0 3.26167e-28
302 3 0.001 -0.0125001 0 -0.0468624 -2.7719e-25 0 8.46272e-14 0 8.6085e-28
303 3 0.001 -0.0125001 0 -0.0462248 -2.7719e-25 0 5.97385e-12 0 7.44234e-28
304 3 0.001 -0.0125001 0 -0.0455872 -2.7719e-25 0 -2.96621e-12 0 3.26167e-28
452 4 0.001 -0.00750005 0 -0.0468624 -2.7719e-25 0 8.46272e-14 0 8.6085e-28
453 4 0.001 -0.00750005 0 -0.0462248 -2.7719e-25 0 5.97385e-12 0 7.44234e-28
454 4 0.001 -0.00750005 0 -0.0455872 -2.7719e-25 0 -2.96621e-12 0 3.26167e-28
602 5 0.001 -0.00250005 0 -0.0468624 -2.7719e-25 0 8.46272e-14 0 8.6085e-28
603 5 0.001 -0.00250005 0 -0.0462248 -2.7719e-25 0 5.97385e-12 0 7.44234e-28
604 5 0.001 -0.00250005 0 -0.0455872 -2.7719e-25 0 -2.96621e-12 0 3.26167e-28
752 6 0.001 0.00250005 0 -0.0468624 2.7719e-25 0 8.46272e-14 0 8.6085e-28
753 6 0.001 0.00250005 0 -0.0462248 2.7719e-25 0 5.97385e-12 0 7.44234e-28
754 6 0.001 0.00250005 0 -0.0455872 2.7719e-25 0 -2.96621e-12 0 3.26167e-28
902 7 0.001 0.00749995 0 -0.0468624 -2.7719e-25 0 8.46272e-14 0 8.6085e-28
903 7 0.001 0.00749995 0 -0.0462248 -2.7719e-25 0 5.97385e-12 0 7.44234e-28
904 7 0.001 0.00749995 0 -0.0455872 -2.7719e-25 0 -2.96621e-12 0 3.26167e-28
1052 8 0.001 0.0125001 0 -0.0468624 2.7719e-25 0 8.46272e-14 0 8.6085e-28
1053 8 0.001 0.0125001 0 -0.0462248 2.7719e-25 0 5.97385e-12 0 7.44234e-28
1054 8 0.001 0.0125001 0 -0.0455872 2.7719e-25 0 -2.96621e-12 0 3.26167e-28
1202 9 0.001 0.0174999 0 -0.0468624 -2.7719e-25 0 8.46272e-14 0 8.6085e-28
1203 9 0.001 0.0174999 0 -0.0462248 -2.7719e-25 0 5.97385e-12 0 7.44234e-28
1204 9 0.001 0.0174999 0 -0.0455872 -2.7719e-25 0 -2.96621e-12 0 3.26167e-28
1352 10 0.001 0.0224999 0 -0.0468624 -2.7719e-25 0 8.46272e-14 0 8.6085e-28
1353 10 0.001 0.0224999 0 -0.0462248 -2.7719e-25 0 5.97385e-12 0 7.44234e-28
1354 10 0.001 0.0224999 0 -0.0455872 -2.7719e-25 0 -2.96621e-12 0 3.26167e-28
5 1 0.001 -0.0224999 0 -0.0449497 2.7719e-25 0 -2.00606e-12 0 1.9757e-28
6 1 0.001 -0.0224999 0 -0.0443121 2.7719e-25 0 4.97285e-12 0 5.21363e-28
155 2 0.001 -0.0174999 0 -0.0449497 2.7719e-25 0 -2.00606e-12 0 1.9757e-28
156 2 0.001 -0.0174999 0 -0.0443121 2.7719e-25 0 4.97285e-12 0 5.21363e-28
305 3 0.001 -0.0125001 0 -0.0449497 -2.7719e-25 0 -2.00606e-12 0 1.9757e-28
306 3 0.001 -0.0125001 0 -0.0443121 -2.7719e-25 0 4.97285e-12 0 5.21363e-28
455 4 0.001 -0.00750005 0 -0.0449497 -2.7719e-25 0 -2.00606e-12 0 1.9757e-28
456 4 0.001 -0.00750005 0 -0.0443121 -2.7719e-25 0 4.97285e-12 0 5.21363e-28
605 5 0.001 -0.00250005 0 -0.0449497 -2.7719e-25 0 -2.00606e-12 0 1.9757e-28
606 5 0.001 -0.00250005 0 -0.0443121 -2.7719e-25 0 4.97285e-12 0 5.21363e-28
755 6 0.001 0.00250005 0 -0.0449497 2.7719e-25 0 -2.00606e-12 0 1.9757e-28
756 6 0.001 0.00250005 0 -0.0443121 2.7719e-25 0 4.97285e-12 0 5.21363e-28
905 7 0.001 0.00749995 0 -0.0449497 -2.7719e-25 0 -2.00606e-12 0 1.9757e-28
906 7 0.001 0.00749995 0 -0.0443121 -2.7719e-25 0 4.97285e-12 0 5.21363e-28
1055 8 0.001 0.0125001 0 -0.0449497 2.7719e-25 0 -2.00606e-12 0 1.9757e-28
1056 8 0.001 0.0125001 0 -0.0443121 2.7719e-25 0 4.97285e-12 0 5.21363e-28
1205 9 0.001 0.0174999 0 -0.0449497 -2.7719e-25 0 -2.00606e-12 0 1.9757e-28
1206 9 0.001 0.0174999 0 -0.0443121 -2.7719e-25 0 4.97285e-12 0 5.21363e-28
1355 10 0.001 0.0224999 0 -0.0449497 -2.7719e-25 0 -2.00606e-12 0 1.9757e-28
1356 10 0.001 0.0224999 0 -0.0443121 -2.7719e-25 0 4.97285e-12 0 5.21363e-28
7 1 0.001 -0.0224999 0 -0.0436745 2.7719e-25 0 -4.01151e-12 0 3.86146e-28
8 1 0.001 -0.0224999 0 -0.0430369 2.7719e-25 0 1.33902e-12 0 6.17987e-29
157 2 0.001 -0.0174999 0 -0.0436745 2.7719e-25 0 -4.01151e-12 0 3.86146e-28
158 2 0.001 -0.0174999 0 -0.0430369 2.7719e-25 0 1.33902e-12 0 6.17987e-29
307 3 0.001 -0.0125001 0 -0.0436745 -2.7719e-25 0 -4.01151e-12 0 3.86146e-28
308 3 0.001 -0.0125001 0 -0.0430369 -2.7719e-25 0 1.33902e-12 0 6.17987e-29
457 4 0.001 -0.00750005 0 -0.0436745 -2.7719e-25 0 -4.01151e-12 0 3.86146e-28
458 4 0.001 -0.00750005 0 -0.0430369 -2.7719e-25 0 1.33902e-12 0 6.17987e-29
607 5 0.001 -0.00250005 0 -0.0436745 -2.7719e-25 0 -4.01151e-12 0 3.86146e-28
608 5 0.001 -0.00250005 0 -0.0430369 -2.7719e-25 0 1.33902e-12 0 6.17987e-29
757 6 0.001 0.00250005 0 -0.0436745 2.7719e-25 0 -4.01151e-12 0 3.86146e-28
758 6 0.001 0.00250005 0 -0.0430369 2.7719e-25 0 1.33902e-12 0 6.17987e-29
907 7 0.001 0.00749995 0 -0.0436745 -2.7719e-25 0 -4.01151e-12 0 3.86146e-28
908 7 0.001 0.00749995 0 -0.0430369 -2.7719e-25 0 1.33902e-12 0 6.17987e-29
1057 8 0.001 0.0125001 0 -0.0436745 2.7719e-25 0 -4.01151e-12 0 3.86146e-28
1058 8 0.001 0.0125001 0 -0.0430369 2.7719e-25 0 1.33902e-12 0 6.17987e-29
1207 9 0.001 0.0174999 0 -0.0436745 -2.7719e-25 0 -4.01151e-12 0 3.86146e-28
1208 9 0.001 0.0174999 0 -0.0430369 -2.7719e-25 0 1.33902e-12 0 6.17987e-29
1357 10 0.001 0.0224999 0 -0.0436745 -2.7719e-25 0 -4.01151e-12 0 3.86146e-28
1358 10 0.001 0.0224999 0 -0.0430369 -2.7719e-25 0 1.33902e-12 0 6.17987e-29
9 1 0.001 -0.0224999 0 -0.0423993 2.7719e-25 0 -1.04556e-12 0 3.587e-29
10 1 0.001 -0.0224999 0 -0.0417617 2.7719e-25 0 2.96662e-12 0 2.08968e-28
11 1 0.001 -0.0224999 0 -0.0411242 2.7719e-25 0 -1.83878e-12 0 1.75509e-28
159 2 0.001 -0.0174999 0 -0.0423993 2.7719e-25 0 -1.04556e-12 0 3.587e-29
160 2 0.001 -0.0174999 0 -0.0417617 2.7719e-25 0 2.96662e-12 0 2.08968e-28
161 2 0.001 -0.0174999 0 -0.0411242 2.7719e-25 0 -1.83878e-12 0 1.75509e-28
309 3 0.001 -0.0125001 0 -0.0423993 -2.7719e-25 0 -1.04556e-12 0 3.587e-29
310 3 0.001 -0.0125001 0 -0.0417617 -2.7719e-25 0 2.96662e-12 0 2.08968e-28
311 3 0.001 -0.0125001 0 -0.0411242 -2.7719e-25 0 -1.83878e-12 0 1.75509e-28
459 4 0.001 -0.00750005 0 -0.0423993 -2.7719e-25 0 -1.04556e-12 0 3.587e-29
460 4 0.001 -0.00750005 0 -0.0417617 -2.7719e-25 0 2.96662e-12 0 2.08968e-28
461 4 0.001 -0.00750005 0 -0.0411242 -2.7719e-25 0 -1.83878e-12 0 1.75509e-28
609 5 0.001 -0.00250005 0 -0.0423993 -2.7719e-25 0 -1.04556e-12 0 3.587e-29
610 5 0.001 -0.00250005 0 -0.0417617 -2.7719e-25 0 2.96662e-12 0 2.08968e-28
611 5 0.001 -0.00250005 0 -0.0411242 -2.7719e-25 0 -1.83878e-12 0 1.75509e-28
759 6 0.001 0.00250005 0 -0.0423993 2.7719e-25 0 -1.04556e-12 0 3.587e-29
760 6 0.001 0.00250005 0 -0.0417617 2.7719e-25 0 2.96662e-12 0 2.08968e-28
761 6 0.001 0.00250005 0 -0.0411242 2.7719e-25 0 -1.83878e-12 0 1.75509e-28
909 7 0.001 0.00749995 0 -0.0423993 -2.7719e-25 0 -1.04556e-12 0 3.587e-29
910 7 0.001 0.00749995 0 -0.0417617 -2.7719e-25 0 2.96662e-12 0 2.08968e-28
911 7 0.001 0.00749995 0 -0.0411242 -2.7719e-25 0 -1.83878e-12 0 1.75509e-28
1059 8 0.001 0.0125001 0 -0.0423993 2.7719e-25 0 -1.04556e-12 0 3.587e-29
1060 8 0.001 0.0125001 0 -0.0417617 2.7719e-25 0 2.96662e-12 0 2.08968e-28
1061 8 0.001 0.0125001 0 -0.0411242 2.7719e-25 0 -1.83878e-12 0 1.75509e-28
1209 9 0.001 0.0174999 0 -0.0423993 -2.7719e-25 0 -1.04556e-12 0 3.587e-29
1210 9 0.001 0.0174999 0 -0.0417617 -2.7719e-25 0 2.96662e-12 0 2.08968e-28
1211 9 0.001 0.0174999 0 -0.0411242 -2.7719e-25 0 -1.83878e-12 0 1.75509e-28
1359 10 0.001 0.0224999 0 -0.0423993 -2.7719e-25 0 -1.04556e-12 0 3.587e-29
1360 10 0.001 0.0224999 0 -0.0417617 -2.7719e-25 0 2.96662e-12 0 2.08968e-28
1361 10 0.001 0.0224999 0 -0.0411242 -2.7719e-25 0 -1.83878e-12 0 1.75509e-28
12 1 0.001 -0.0224999 0 -0.0404866 2.7719e-25 0 -1.62883e-12 0 8.58153e-29
13 1 0.001 -0.0224999 0 -0.039849 2.7719e-25 0 -2.13238e-12 0 6.08399e-28
162 2 0.001 -0.0174999 0 -0.0404866 2.7719e-25 0 -1.62883e-12 0 8.58153e-29
163 2 0.001 -0.0174999 0 -0.039849 2.7719e-25 0 -2.13238e-12 0 6.08399e-28
312 3 0.001 -0.0125001 0 -0.0404866 -2.7719e-25 0 -1.62883e-12 0 8.58153e-29
313 3 0.001 -0.0125001 0 -0.039849 -2.7719e-25 0 -2.13238e-12 0 6.08399e-28
462 4 0.001 -0.00750005 0 -0.0404866 -2.7719e-25 0 -1.62883e-12 0 8.58153e-29
463 4 0.001 -0.00750005 0 -0.039849 -2.7719e-25 0 -2.13238e-12 0 6.08399e-28
612 5 0.001 -0.00250005 0 -0.0404866 -2.7719e-25 0 -1.62883e-12 0 8.58153e-29
613 5 0.001 -0.00250005 0 -0.039849 -2.7719e-25 0 -2.13238e-12 0 6.08399e-28
762 6 0.001 0.00250005 0 -0.0404866 2.7719e-25 0 -1.62883e-12 0 8.58153e-29
763 6 0.001 0.00250005 0 -0.039849 2.7719e-25 0 -2.13238e-12 0 6.08399e-28
912 7 0.001 0.00749995 0 -0.0404866 -2.7719e-25 0 -1.62883e-12 0 8.58153e-29
913 7 0.001 0.00749995 0 -0.039849 -2.7719e-25 0 -2.13238e-12 0 6.08399e-28
1062 8 0.001 0.0125001 0 -0.0404866 2.7719e-25 0 -1.62883e-12 0 8.58153e-29
1063 8 0.001 0.0125001 0 -0.039849 2.7719e-25 0 -2.13238e-12 0 6.08399e-28
1212 9 0.001 0.0174999 0 -0.0404866 -2.7719e-25 0 -1.62883e-12 0 8.58153e-29
1213 9 0.001 0.0174999 0 -0.039849 -2.7719e-25 0 -2.13238e-12 0 6.08399e-28
1362 10 0.001 0.0224999 0 -0.0404866 -2.7719e-25 0 -1.62883e-12 0 8.58153e-29
1363 10 0.001 0.0224999 0 -0.039849 -2.7719e-25 0 -2.13238e-12 0 6.08399e-28
14 1 0.001 -0.0224999 0 -0.0392114 2.7719e-25 0 7.94017e-12 0 1.32292e-27
15 1 0.001 -0.0224999 0 -0.0385738 2.7719e-25 0 -3.92821e-12 0 8.07253e-28
16 1 0.001 -0.0224999 0 -0.0379362 2.7719e-25 0 -4.17686e-14 0 1.58792e-29
164 2 0.001 -0.0174999 0 -0.0392114 2.7719e-25 0 7.94017e-12 0 1.32292e-27
165 2 0.001 -0.0174999 0 -0.0385738 2.7719e-25 0 -3.92821e-12 0 8.07253e-28
166 2 0.001 -0.0174999 0 -0.0379362 2.7719e-25 0 -4.17686e-14 0 1.58792e-29
314 3 0.001 -0.0125001 0 -0.0392114 -2.7719e-25 0 7.94017e-12 0 1.32292e-27
315 3 0.001 -0.0125001 0 -0.0385738 -2.7719e-25 0 -3.92821e-12 0 8.07253e-28
316 3 0.001 -0.0125001 0 -0.0379362 -2.7719e-25 0 -4.17686e-14 0 1.58792e-29
464 4 0.001 -0.00750005 0 -0.0392114 -2.7719e-25 0 7.94017e-12 0 1.32292e-27
465 4 0.001 -0.00750005 0 -0.0385738 -2.7719e-25 0 -3.92821e-12 0 8.07253e-28
466 4 0.001 -0.00750005 0 -0.0379362 -2.7719e-25 0 -4.17686e-14 0 1.58792e-29
614 5 0.001 -0.00250005 0 -0.0392114 -2.7719e-25 0 7.94017e-12 0 1.32292e-27
615 5 0.001 -0.00250005 0 -0.0385738 -2.7719e-25 0 -3.92821e-12 0 8.07253e-28
616 5 0.001 -0.00250005 0 -0.0379362 -2.7719e-25 0 -4.17686e-14 0 1.58792e-29
764 6 0.001 0.00250005 0 -0.0392114 2.7719e-25 0 7.94017e-12 0 1.32292e-27
765 6 0.001 0.00250005 0 -0.0385738 2.7719e-25 0 -3.92821e-12 0 8.07253e-28
766 6 0.001 0.00250005 0 -0.0379362 2.7719e-25 0 -4.17686e-14 0 1.58792e-29
914 7 0.001 0.00749995 0 -0.0392114 -2.7719e-25 0 7.94017e-12 0 1.32292e-27
915 7 0.001 0.00749995 0 -0.0385738 -2.7719e-25 0 -3.92821e-12 0 8.07253e-28
916 7 0.001 0.00749995 0 -0.0379362 -2.7719e-25 0 -4.17686e-14 0 1.58792e-29
1064 8 0.001 0.0125001 0 -0.0392114 2.7719e-25 0 7.94017e-12 0 1.32292e-27
1065 8 0.001 0.0125001 0 -0.0385738 2.7719e-25 0 -3.92821e-12 0 8.07253e-28
1066 8 0.001 0.0125001 0 -0.0379362 2.7719e-25 0 -4.17686e-14 0 1.58792e-29
1214 9 0.001 0.0174999 0 -0.0392114 -2.7719e-25 0 7.94017e-12 0 1.32292e-27
1215 9 0.001 0.0174999 0 -0.0385738 -2.7719e-25 0 -3.92821e-12 0 8.07253e-28
1216 9 0.001 0.0174999 0 -0.0379362 -2.7719e-25 0 -4.17686e-14 0 1.58792e-29
1364 10 0.001 0.0224999 0 -0.0392114 -2.7719e-25 0 7.94017e-12 0 1.32292e-27
1365 10 0.001 0.0224999 0 -0.0385738 -2.7719e-25 0 -3.92821e-12 0 8.07253e-28
1366 10 0.001 0.0224999 0 -0.0379362 -2.7719e-25 0 -4.17686e-14 0 1.58792e-29
17 1 0.001 -0.0224999 0 -0.0372987 2.7719e-25 0 -2.63301e-12 0 2.11184e-28
18 1 0.001 -0.0224999 0 -0.0366611 2.7719e-25 0 4.88965e-12 0 5.00511e-28
167 2 0.001 -0.0174999 0 -0.0372987 2.7719e-25 0 -2.63301e-12 0 2.11184e-28
168 2 0.001 -0.0174999 0 -0.0366611 2.7719e-25 0 4.88965e-12 0 5.00511e-28
317 3 0.001 -0.0125001 0 -0.0372987 -2.7719e-25 0 -2.63301e-12 0 2.11184e-28
318 3 0.001 -0.0125001 0 -0.0366611 -2.7719e-25 0 4.88965e-12 0 5.00511e-28
467 4 0.001 -0.00750005 0 -0.0372987 -2.7719e-25 0 -2.63301e-12 0 2.11184e-28
468 4 0.001 -0.00750005 0 -0.0366611 -2.7719e-25 0 4.88965e-12 0 5.00511e-28
617 5 0.001 -0.00250005 0 -0.0372987 -2.7719e-25 0 -2.63301e-12 0 2.11184e-28
618 5 0.001 -0.00250005 0 -0.0366611 -2.7719e-25 0 4.88965e-12 0 5.00511e-28
767 6 0.001 0.00250005 0 -0.0372987 2.7719e-25 0 -2.63301e-12 0 2.11184e-28
768 6 0.001 0.00250005 0 -0.0366611 2.7719e-25 0 4.88965e-12 0 5.00511e-28
917 7 0.001 0.00749995 0 -0.0372987 -2.7719e-25 0 -2.63301e-12 0 2.11184e-28
918 7 0.001 0.00749995 0 -0.0366611 -2.7719e-25 0 4.88965e-12 0 5.00511e-28
1067 8 0.001 0.0125001 0 -0.0372987 2.7719e-25 0 -2.63301e-12 0 2.11184e-28
1068 8 0.001 0.0125001 0 -0.0366611 2.7719e-25 0 4.88965e-12 0 5.00511e-28
1217 9 0.001 0.0174999 0 -0.0372987 -2.7719e-25 0 -2.63301e-12 0 2.11184e-28
1218 9 0.001 0.0174999 0 -0.0366611 -2.7719e-25 0 4.88965e-12 0 5.00511e-28
1367 10 0.001 0.0224999 0 -0.0372987 -2.7719e-25 0 -2.63301e-12 0 2.11184e-28
1368 10 0.001 0.0224999 0 -0.0366611 -2.7719e-25 0 4.88965e-12 0 5.00511e-28
19 1 0.001 -0.0224999 0 -0.0360235 2.7719e-25 0 -6.56166e-12 0 9.2416e-28
20 1 0.001 -0.0224999 0 -0.0353859 2.7719e-25 0 7.23032e-12 0 1.09108e-27
169 2 0.001 -0.0174999 0 -0.0360235 2.7719e-25 0 -6.56166e-12 0 9.2416e-28
170 2 0.001 -0.0174999 0 -0.0353859 2.7719e-25 0 7.23032e-12 0 1.09108e-27
319 3 0.001 -0.0125001 0 -0.0360235 -2.7719e-25 0 -6.56166e-12 0 9.2416e-28
320 3 0.001 -0.0125001 0 -0.0353859 -2.7719e-25 0 7.23032e-12 0 1.09108e-27
469 4 0.001 -0.00750005 0 -0.0360235 -2.7719e-25 0 -6.56166e-12 0 9.2416e-28
470 4 0.001 -0.00750005 0 -0.0353859 -2.7719e-25 0 7.23032e-12 0 1.09108e-27
619 5 0.001 -0.00250005 0 -0.0360235 -2.7719e-25 0 -6.56166e-12 0 9.2416e-28
620 5 0.001 -0.00250005 0 -0.0353859 -2.7719e-25 0 7.23032e-12 0 1.09108e-27
769 6 0.001 0.00250005 0 -0.0360235 2.7719e-25 0 -6.56166e-12 0 9.2416e-28
770 6 0.001 0.00250005 0 -0.0353859 2.7719e-25 0 7.23032e-12 0 1.09108e-27
919 7 0.001 0.00749995 0 -0.0360235 -2.7719e-25 0 -6.56166e-12 0 9.2416e-28
920 7 0.001 0.00749995 0 -0.0353859 -2.7719e-25 0 7.23032e-12 0 1.09108e-27
1069 8 0.001 0.0125001 0 -0.0360235 2.7719e-25 0 -6.56166e-12 0 9.2416e-28
1070 8 0.001 0.0125001 0 -0.0353859 2.7719e-25 0 7.23032e-12 0 1.09108e-27
1219 9 0.001 0.0174999 0 -0.0360235 -2.7719e-25 0 -6.56166e-12 0 9.2416e-28
1220 9 0.001 0.0174999 0 -0.0353859 -2.7719e-25 0 7.23032e-12 0 1.09108e-27
1369 10 0.001 0.0224999 0 -0.0360235 -2.7719e-25 0 -6.56166e-12 0 9.2416e-28
1370 10 0.001 0.0224999 0 -0.0353859 -2.7719e-25 0 7.23032e-12 0 1.09108e-27
21 1 0.001 -0.0224999 0 -0.0347483 2.7719e-25 0 -8.35251e-13 0 7.24009e-28
22 1 0.001 -0.0224999 0 -0.0341107 2.7719e-25 0 -3.80275e-12 0 3.30458e-28
23 1 0.001 -0.0224999 0 -0.0334732 2.7719e-25 0 -6.27688e-13 0 2.23594e-28
171 2 0.001 -0.0174999 0 -0.0347483 2.7719e-25 0 -8.35251e-13 0 7.24009e-28
172 2 0.001 -0.0174999 0 -0.0341107 2.7719e-25 0 -3.80275e-12 0 3.30458e-28
173 2 0.001 -0.0174999 0 -0.0334732 2.7719e-25 0 -6.27688e-13 0 2.23594e-28
321 3 0.001 -0.0125001 0 -0.0347483 -2.7719e-25 0 -8.35251e-13 0 7.24009e-28
322 3 0.001 -0.0125001 0 -0.0341107 -2.7719e-25 0 -3.80275e-12 0 3.30458e-28
323 3 0.001 -0.0125001 0 -0.0334732 -2.7719e-25 0 -6.27688e-13 0 2.23594e-28
471 4 0.001 -0.00750005 0 -0.0347483 -2.7719e-25 0 -8.35251e-13 0 7.24009e-28
472 4 0.001 -0.00750005 0 -0.0341107 -2.7719e-25 0 -3.80275e-12 0 3.30458e-28
473 4 0.001 -0.00750005 0 -0.0334732 -2.7719e-25 0 -6.27688e-13 0 2.23594e-28
621 5 0.001 -0.00250005 0 -0.0347483 -2.7719e-25 0 -8.35251e-13 0 7.24009e-28
622 5 0.001 -0.00250005 0 -0.0341107 -2.7719e-25 0 -3.80275e-12 0 3.30458e-28
623 5 0.001 -0.00250005 0 -0.0334732 -2.7719e-25 0 -6.27688e-13 0 2.23594e-28
771 6 0.001 0.00250005 0 -0.0347483 2.7719e-25 0 -8.35251e-13 0 7.24009e-28
772 6 0.001 0.00250005 0 -0.0341107 2.7719e-25 0 -3.80275e-12 0 3.30458e-28
773 6 0.001 0.00250005 0 -0.0334732 2.7719e-25 0 -6.27688e-13 0 2.23594e-28
921 7 0.001 0.00749995 0 -0.0347483 -2.7719e-25 0 -8.35251e-13 0 7.24009e-28
922 7 0.001 0.00749995 0 -0.0341107 -2.7719e-25 0 -3.80275e-12 0 3.30458e-28
923 7 0.001 0.00749995 0 -0.0334732 -2.7719e-25 0 -6.27688e-13 0 2.23594e-28
1071 8 0.001 0.0125001 0 -0.0347483 2.7719e-25 0 -8.35251e-13 0 7.24009e-28
1072 8 0.001 0.0125001 0 -0.0341107 2.7719e-25 0 -3.80275e-12 0 3.30458e-28
1073 8 0.001 0.0125001 0 -0.0334732 2.7719e-25 0 -6.27688e-13 0 2.23594e-28
1221 9 0.001 0.0174999 0 -0.0347483 -2.7719e-25 0 -8.35251e-13 0 7.24009e-28
1222 9 0.001 0.0174999 0 -0.0341107 -2.7719e-25 0 -3.80275e-12 0 3.30458e-28
1223 9 0.001 0.0174999 0 -0.0334732 -2.7719e-25 0 -6.27688e-13 0 2.23594e-28
1371 10 0.001 0.0224999 0 -0.0347483 -2.7719e-25 0 -8.35251e-13 0 7.24009e-28
1372 10 0.001 0.0224999 0 -0.0341107 -2.7719e-25 0 -3.80275e-12 0 3.30458e-28
1373 10 0.001 0.0224999 0 -0.0334732 -2.7719e-25 0 -6.27688e-13 0 2.23594e-28
24 1 0.001 -0.0224999 0 -0.0328356 2.7719e-25 0 1.29548e-12 0 1.70128e-28
25 1 0.001 -0.0224999 0 -0.032198 2.7719e-25 0 7.53197e-13 0 1.7046e-29
174 2 0.001 -0.0174999 0 -0.0328356 2.7719e-25 0 1.29548e-12 0 1.70128e-28
175 2 0.001 -0.0174999 0 -0.032198 2.7719e-25 0 7.53197e-13 0 1.7046e-29
324 3 0.001 -0.0125001 0 -0.0328356 -2.7719e-25 0 1.29548e-12 0 1.70128e-28
325 3 0.001 -0.0125001 0 -0.032198 -2.7719e-25 0 7.53197e-13 0 1.7046e-29
474 4 0.001 -0.00750005 0 -0.0328356 -2.7719e-25 0 1.29548e-12 0 1.70128e-28
475 4 0.001 -0.00750005 0 -0.032198 -2.7719e-25 0 7.53197e-13 0 1.7046e-29
624 5 0.001 -0.00250005 0 -0.0328356 -2.7719e-25 0 1.29548e-12 0 1.70128e-28
625 5 0.001 -0.00250005 0 -0.032198 -2.7719e-25 0 7.53197e-13 0 1.7046e-29
774 6 0.001 0.00250005 0 -0.0328356 2.7719e-25 0 1.29548e-12 0 1.70128e-28
775 6 0.001 0.00250005 0 -0.032198 2.7719e-25 0 7.53197e-13 0 1.7046e-29
924 7 0.001 0.00749995 0 -0.0328356 -2.7719e-25 0 1.29548e-12 0 1.70128e-28
925 7 0.001 0.00749995 0 -0.032198 -2.7719e-25 0 7.53197e-13 0 1.7046e-29
1074 8 0.001 0.0125001 0 -0.0328356 2.7719e-25 0 1.29548e-12 0 1.70128e-28
1075 8 0.001 0.0125001 0 -0.032198 2.7719e-25 0 7.53197e-13 0 1.7046e-29
1224 9 0.001 0.0174999 0 -0.0328356 -2.7719e-25 0 1.29548e-12 0 1.70128e-28
1225 9 0.001 0.0174999 0 -0.032198 -2.7719e-25 0 7.53197e-13 0 1.7046e-29
1374 10 0.001 0.0224999 0 -0.0328356 -2.7719e-25 0 1.29548e-12 0 1.70128e-28
1375 10 0.001 0.0224999 0 -0.032198 -2.7719e-25 0 7.53197e-13 0 1.7046e-29
26 1 0.001 -0.0224999 0 -0.0315604 2.7719e-25 0 -2.50828e-12 0 2.36559e-28
27 1 0.001 -0.0224999 0 -0.0309228 2.7719e-25 0 4.03218e-12 0 3.48771e-28
176 2 0.001 -0.0174999 0 -0.0315604 2.7719e-25 0 -2.50828e-12 0 2.36559e-28
177 2 0.001 -0.0174999 0 -0.0309228 2.7719e-25 0 4.03218e-12 0 3.48771e-28
326 3 0.001 -0.0125001 0 -0.0315604 -2.7719e-25 0 -2.50828e-12 0 2.36559e-28
327 3 0.001 -0.0125001 0 -0.0309228 -2.7719e-25 0 4.03218e-12 0 3.48771e-28
476 4 0.001 -0.00750005 0 -0.0315604 -2.7719e-25 0 -2.50828e-12 0 2.36559e-28
477 4 0.001 -0.00750005 0 -0.0309228 -2.7719e-25 0 4.03218e-12 0 3.48771e-28
626 5 0.001 -0.00250005 0 -0.0315604 -2.7719e-25 0 -2.50828e-12 0 2.36559e-28
627 5 0.001 -0.00250005 0 -0.0309228 -2.7719e-25 0 4.03218e-12 0 3.48771e-28
776 6 0.001 0.00250005 0 -0.0315604 2.7719e-25 0 -2.50828e-12 0 2.36559e-28
777 6 0.001 0.00250005 0 -0.0309228 2.7719e-25 0 4.03218e-12 0 3.48771e-28
926 7 0.001 0.00749995 0 -0.0315604 -2.7719e-25 0 -2.50828e-12 0 2.36559e-28
927 7 0.001 0.00749995 0 -0.0309228 -2.7719e-25 0 4.03218e-12 0 3.48771e-28
1076 8 0.001 0.0125001 0 -0.0315604 2.7719e-25 0 -2.50828e-12 0 2.36559e-28
1077 8 0.001 0.0125001 0 -0.0309228 2.7719e-25 0 4.03218e-12 0 3.48771e-28
1226 9 0.001 0.0174999 0 -0.0315604 -2.7719e-25 0 -2.50828e-12 0 2.36559e-28
1227 9 0.001 0.0174999 0 -0.0309228 -2.7719e-25 0 4.03218e-12 0 3.48771e-28
1376 10 0.001 0.0224999 0 -0.0315604 -2.7719e-25 0 -2.50828e-12 0 2.36559e-28
1377 10 0.001 0.0224999 0 -0.0309228 -2.7719e-25 0 4.03218e-12 0 3.48771e-28
28 1 0.001 -0.0224999 0 -0.0302852 2.7719e-25 0 -2.40252e-12 0 1.36455e-28
29 1 0.001 -0.0224999 0 -0.0296477 2.7719e-25 0 8.28434e-14 0 4.22791e-29
30 1 0.001 -0.0224999 0 -0.0290101 2.7719e-25 0 4.78546e-12 0 7.21373e-28
178 2 0.001 -0.0174999 0 -0.0302852 2.7719e-25 0 -2.40252e-12 0 1.36455e-28
179 2 0.001 -0.0174999 0 -0.0296477 2.7719e-25 0 8.28434e-14 0 4.22791e-29
180 2 0.001 -0.0174999 0 -0.0290101 2.7719e-25 0 4.78546e-12 0 7.21373e-28
328 3 0.001 -0.0125001 0 -0.0302852 -2.7719e-25 0 -2.40252e-12 0 1.36455e-28
329 3 0.001 -0.0125001 0 -0.0296477 -2.7719e-25 0 8.28434e-14 0 4.22791e-29
330 3 0.001 -0.0125001 0 -0.0290101 -2.7719e-25 0 4.78546e-12 0 7.21373e-28
478 4 0.001 -0.00750005 0 -0.0302852 -2.7719e-25 0 -2.40252e-12 0 1.36455e-28
479 4 0.001 -0.00750005 0 -0.0296477 -2.7719e-25 0 8.28434e-14 0 4.22791e-29
480 4 0.001 -0.00750005 0 -0.0290101 -2.7719e-25 0 4.78546e-12 0 7.21373e-28
628 5 0.001 -0.00250005 0 -0.0302852 -2.7719e-25 0 -2.40252e-12 0 1.36455e-28
629 5 0.001 -0.00250005 0 -0.0296477 -2.7719e-25 0 8.28434e-14 0 4.22791e-29
630 5 0.001 -0.00250005 0 -0.0290101 -2.7719e-25 0 4.78546e-12 0 7.21373e-28
778 6 0.001 0.00250005 0 -0.0302852 2.7719e-25 0 -2.40252e-12 0 1.36455e-28
779 6 0.001 0.00250005 0 -0.0296477 2.7719e-25 0 8.28434e-14 0 4.22791e-29
780 6 0.001 0.00250005 0 -0.0290101 2.7719e-25 0 4.78546e-12 0 7.21373e-28
928 7 0.001 0.00749995 0 -0.0302852 -2.7719e-25 0 -2.40252e-12 0 1.36455e-28
929 7 0.001 0.00749995 0 -0.0296477 -2.7719e-25 0 8.28434e-14 0 4.22791e-29
930 7 0.001 0.00749995 0 -0.0290101 -2.7719e-25 0 4.78546e-12 0 7.21373e-28
1078 8 0.001 0.0125001 0 -0.0302852 2.7719e-25 0 -2.40252e-12 0 1.36455e-28
1079 8 0.001 0.0125001 0 -0.0296477 2.7719e-25 0 8.28434e-14 0 4.22791e-29
1080 8 0.001 0.0125001 0 -0.0290101 2.7719e-25 0 4.78546e-12 0 7.21373e-28
1228 9 0.001 0.0174999 0 -0.0302852 -2.7719e-25 0 -2.40252e-12 0 1.36455e-28
1229 9 0.001 0.0174999 0 -0.0296477 -2.7719e-25 0 8.28434e-14 0 4.22791e-29
1230 9 0.001 0.0174999 0 -0.0290101 -2.7719e-25 0 4.78546e-12 0 7.21373e-28
1378 10 0.001 0.0224999 0 -0.0302852 -2.7719e-25 0 -2.40252e-12 0 1.36455e-28
1379 10 0.001 0.0224999 0 -0.0296477 -2.7719e-25 0 8.28434e-14 0 4.22791e-29
1380 10 0.001 0.0224999 0 -0.0290101 -2.7719e-25 0 4.78546e-12 0 7.21373e-28
31 1 0.001 -0.0224999 0 -0.0283725 2.7719e-25 0 -8.35825e-12 0 1.45027e-27
32 1 0.001 -0.0224999 0 -0.0277349 2.7719e-25 0 6.54162e-12 0 9.66489e-28
181 2 0.001 -0.0174999 0 -0.0283725 2.7719e-25 0 -8.35825e-12 0 1.45027e-27
182 2 0.001 -0.0174999 0 -0.0277349 2.7719e-25 0 6.54162e-12 0 9.66489e-28
331 3 0.001 -0.0125001 0 -0.0283725 -2.7719e-25 0 -8.35825e-12 0 1.45027e-27
332 3 0.001 -0.0125001 0 -0.0277349 -2.7719e-25 0 6.54162e-12 0 9.66489e-28
481 4 0.001 -0.00750005 0 -0.0283725 -2.7719e-25 0 -8.35825e-12 0 1.45027e-27
482 4 0.001 -0.00750005 0 -0.0277349 -2.7719e-25 0 6.54162e-12 0 9.66489e-28
631 5 0.001 -0.00250005 0 -0.0283725 -2.7719e-25 0 -8.35825e-12 0 1.45027e-27
632 5 0.001 -0.00250005 0 -0.0277349 -2.7719e-25 0 6.54162e-12 0 9.66489e-28
781 6 0.001 0.00250005 0 -0.0283725 2.7719e-25 0 -8.35825e-12 0 1.45027e-27
782 6 0.001 0.00250005 0 -0.0277349 2.7719e-25 0 6.54162e-12 0 9.66489e-28
931 7 0.001 0.00749995 0 -0.0283725 -2.7719e-25 0 -8.35825e-12 0 1.45027e-27
932 7 0.001 0.00749995 0 -0.0277349 -2.7719e-25 0 6.54162e-12 0 9.66489e-28
1081 8 0.001 0.0125001 0 -0.0283725 2.7719e-25 0 -8.35825e-12 0 1.45027e-27
1082 8 0.001 0.0125001 0 -0.0277349 2.7719e-25 0 6.54162e-12 0 9.66489e-28
1231 9 0.001 0.0174999 0 -0.0283725 -2.7719e-25 0 -8.35825e-12 0 1.45027e-27
1232 9 0.001 0.0174999 0 -0.0277349 -2.7719e-25 0 6.54162e-12 0 9.66489e-28
1381 10 0.001 0.0224999 0 -0.0283725 -2.7719e-25 0 -8.35825e-12 0 1.45027e-27
1382 10 0.001 0.0224999 0 -0.0277349 -2.7719e-25 0 6.54162e-12 0 9.66489e-28
33 1 0.001 -0.0224999 0 -0.0270973 2.7719e-25 0 -1.08841e-12 0 2.79699e-28
34 1 0.001 -0.0224999 0 -0.0264597 2.7719e-25 0 -4.88862e-12 0 6.2278e-28
35 1 0.001 -0.0224999 0 -0.0258221 2.7719e-25 0 1.0029e-11 0 2.23592e-27
183 2 0.001 -0.0174999 0 -0.0270973 2.7719e-25 0 -1.08841e-12 0 2.79699e-28
184 2 0.001 -0.0174999 0 -0.0264597 2.7719e-25 0 -4.88862e-12 0 6.2278e-28
185 2 0.001 -0.0174999 0 -0.0258221 2.7719e-25 0 1.0029e-11 0 2.23592e-27
333 3 0.001 -0.0125001 0 -0.0270973 -2.7719e-25 0 -1.08841e-12 0 2.79699e-28
334 3 0.001 -0.0125001 0 -0.0264597 -2.7719e-25 0 -4.88862e-12 0 6.2278e-28
335 3 0.001 -0.0125001 0 -0.0258221 -2.7719e-25 0 1.0029e-11 0 2.23592e-27
483 4 0.001 -0.00750005 0 -0.0270973 -2.7719e-25 0 -1.08841e-12 0 2.79699e-28
484 4 0.001 -0.00750005 0 -0.0264597 -2.7719e-25 0 -4.88862e-12 0 6.2278e-28
485 4 0.001 -0.00750005 0 -0.0258221 -2.7719e-25 0 1.0029e-11 0 2.23592e-27
633 5 0.001 -0.00250005 0 -0.0270973 -2.7719e-25 0 -1.08841e-12 0 2.79699e-28
634 5 0.001 -0.00250005 0 -0.0264597 -2.7719e-25 0 -4.88862e-12 0 6.2278e-28
635 5 0.001 -0.00250005 0 -0.0258221 -2.7719e-25 0 1.0029e-11 0 2.23592e-27
783 6 0.001 0.00250005 0 -0.0270973 2.7719e-25 0 -1.08841e-12 0 2.79699e-28
784 6 0.001 0.00250005 0 -0.0264597 2.7719e-25 0 -4.88862e-12 0 6.2278e-28
785 6 0.001 0.00250005 0 -0.0258221 2.7719e-25 0 1.0029e-11 0 2.23592e-27
933 7 0.001 0.00749995 0 -0.0270973 -2.7719e-25 0 -1.08841e-12 0 2.79699e-28
934 7 0.001 0.00749995 0 -0.0264597 -2.7719e-25 0 -4.88862e-12 0 6.2278e-28
935 7 0.001 0.00749995 0 -0.0258221 -2.7719e-25 0 1.0029e-11 0 2.23592e-27
1083 8 0.001 0.0125001 0 -0.0270973 2.7719e-25 0 -1.08841e-12 0 2.79699e-28
1084 8 0.001 0.0125001 0 -0.0264597 2.7719e-25 0 -4.88862e-12 0 6.2278e-28
1085 8 0.001 0.0125001 0 -0.0258221 2.7719e-25 0 1.0029e-11 0 2.23592e-27
1233 9 0.001 0.0174999 0 -0.0270973 -2.7719e-25 0 -1.08841e-12 0 2.79699e-28
1234 9 0.001 0.0174999 0 -0.0264597 -2.7719e-25 0 -4.88862e-12 0 6.2278e-28
1235 9 0.001 0.0174999 0 -0.0258221 -2.7719e-25 0 1.0029e-11 0 2.23592e-27
1383 10 0.001 0.0224999 0 -0.0270973 -2.7719e-25 0 -1.08841e-12 0 2.79699e-28
1384 10 0.001 0.0224999 0 -0.0264597 -2.7719e-25 0 -4.88862e-12 0 6.2278e-28
1385 10 0.001 0.0224999 0 -0.0258221 -2.7719e-25 0 1.0029e-11 0 2.23592e-27
36 1 0.001 -0.0224999 0 -0.0251846 2.7719e-25 0 -1.25363e-11 0 3.26288e-27
37 1 0.001 -0.0224999 0 -0.024547 2.7719e-25 0 8.29559e-12 0 1.7735e-27
186 2 0.001 -0.0174999 0 -0.0251846 2.7719e-25 0 -1.25363e-11 0 3.26288e-27
187 2 0.001 -0.0174999 0 -0.024547 2.7719e-25 0 8.29559e-12 0 1.7735e-27
336 3 0.001 -0.0125001 0 -0.0251846 -2.7719e-25 0 -1.25363e-11 0 3.26288e-27
337 3 0.001 -0.0125001 0 -0.024547 -2.7719e-25 0 8.29559e-12 0 1.7735e-27
486 4 0.001 -0.00750005 0 -0.0251846 -2.7719e-25 0 -1.25363e-11 0 3.26288e-27
487 4 0.001 -0.00750005 0 -0.024547 -2.7719e-25 0 8.29559e-12 0 1.7735e-27
636 5 0.001 -0.00250005 0 -0.0251846 -2.7719e-25 0 -1.25363e-11 0 3.26288e-27
637 5 0.001 -0.00250005 0 -0.024547 -2.7719e-25 0 8.29559e-12 0 1.7735e-27
786 6 0.001 0.00250005 0 -0.0251846 2.7719e-25 0 -1.25363e-11 0 3.26288e-27
787 6 0.001 0.00250005 0 -0.024547 2.7719e-25 0 8.29559e-12 0 1.7735e-27
936 7 0.001 0.00749995 0 -0.0251846 -2.7719e-25 0 -1.25363e-11 0 3.26288e-27
937 7 0.001 0.00749995 0 -0.024547 -2.7719e-25 0 8.29559e-12 0 1.7735e-27
1086 8 0.001 0.0125001 0 -0.0251846 2.7719e-25 0 -1.25363e-11 0 3.26288e-27
1087 8 0.001 0.0125001 0 -0.024547 2.7719e-25 0 8.29559e-12 0 1.7735e-27
1236 9 0.001 0.0174999 0 -0.0251846 -2.7719e-25 0 -1.25363e-11 0 3.26288e-27
1237 9 0.001 0.0174999 0 -0.024547 -2.7719e-25 0 8.29559e-12 0 1.7735e-27
1386 10 0.001 0.0224999 0 -0.0251846 -2.7719e-25 0 -1.25363e-11 0 3.26288e-27
1387 10 0.001 0.0224999 0 -0.024547 -2.7719e-25 0 8.29559e-12 0 1.7735e-27
38 1 0.001 -0.0224999 0 -0.0239094 2.7719e-25 0 -4.80399e-13 0 2.94542e-28
39 1 0.001 -0.0224999 0 -0.0232718 2.7719e-25 0 -4.22168e-12 0 3.89098e-28
188 2 0.001 -0.0174999 0 -0.0239094 2.7719e-25 0 -4.80399e-13 0 2.94542e-28
189 2 0.001 -0.0174999 0 -0.0232718 2.7719e-25 0 -4.22168e-12 0 3.89098e-28
338 3 0.001 -0.0125001 0 -0.0239094 -2.7719e-25 0 -4.80399e-13 0 2.94542e-28
339 3 0.001 -0.0125001 0 -0.0232718 -2.7719e-25 0 -4.22168e-12 0 3.89098e-28
488 4 0.001 -0.00750005 0 -0.0239094 -2.7719e-25 0 -4.80399e-13 0 2.94542e-28
489 4 0.001 -0.00750005 0 -0.0232718 -2.7719e-25 0 -4.22168e-12 0 3.89098e-28
638 5 0.001 -0.00250005 0 -0.0239094 -2.7719e-25 0 -4.80399e-13 0 2.94542e-28
639 5 0.001 -0.00250005 0 -0.0232718 -2.7719e-25 0 -4.22168e-12 0 3.89098e-28
788 6 0.001 0.00250005 0 -0.0239094 2.7719e-25 0 -4.80399e-13 0 2.94542e-28
789 6 0.001 0.00250005 0 -0.0232718 2.7719e-25 0 -4.22168e-12 0 3.89098e-28
938 7 0.001 0.00749995 0 -0.0239094 -2.7719e-25 0 -4.80399e-13 0 2.94542e-28
939 7 0.001 0.00749995 0 -0.0232718 -2.7719e-25 0 -4.22168e-12 0 3.89098e-28
1088 8 0.001 0.0125001 0 -0.0239094 2.7719e-25 0 -4.80399e-13 0 2.94542e-28
1089 8 0.001 0.0125001 0 -0.0232718 2.7719e-25 0 -4.22168e-12 0 3.89098e-28
1238 9 0.001 0.0174999 0 -0.0239094 -2.7719e-25 0 -4.80399e-13 0 2.94542e-28
1239 9 0.001 0.0174999 0 -0.0232718 -2.7719e-25 0 -4.22168e-12 0 3.89098e-28
1388 10 0.001 0.0224999 0 -0.0239094 -2.7719e-25 0 -4.80399e-13 0 2.94542e-28
1389 10 0.001 0.0224999 0 -0.0232718 -2.7719e-25 0 -4.22168e-12 0 3.89098e-28
40 1 0.001 -0.0224999 0 -0.0226342 2.7719e-25 0 6.37415e-12 0 8.72242e-28