ITEM: TIMESTEP
100000
ITEM: NUMBER OF ATOMS
6
ITEM: BOX BOUNDS pp pp ff
-2.5000000000000000e-01 2.5000000000000000e-01
-2.5000000000000000e-01 2.5000000000000000e-01
-1.0000000000000001e-01 1.0000000000000001e-01
ITEM: ATOMS id type radius x y z fx fy fz c_bendingE c_stretchingE
1 1 0.015 0.00229305 0.00229305 -0.0351232 10.2219 10.2219 56.3058 0.000470039 0.0936749
2 1 0.015 0.00466924 0.00466924 -0.0190177 17.0002 17.0002 -33.6648 0.065469 0.139267
3 1 0.015 0.00611079 0.00611079 -0.00466028 -63.4206 -63.4206 -30.1601 0.0683287 0.0913422
4 1 0.015 -5.17956e-06 -5.17956e-06 0.00698914 29.6167 29.6167 33.6427 0.068545 0.0878574
5 1 0.015 -0.00467452 -0.00467452 0.0197024 2.92445 2.92445 -3.07394 0.00354609 0.06929
6 1 0.015 -0.00839337 -0.00839337 0.0321096 3.65741 3.65741 -23.0496 0.00068637 0.0271833
