ITEM: TIMESTEP
1900000
ITEM: NUMBER OF ATOMS
1500
ITEM: BOX BOUNDS ff ff ff
-2.5000000000000001e-02 2.5000000000000001e-02
-5.0000000000000001e-03 5.0000000000000001e-03
-5.0000000000000003e-02 5.0000000000000003e-02
ITEM: ATOMS id type radius x y z fx fy fz c_bendingE c_stretchingE
1 1 0.001 -0.0225 0 -0.04389 -0.150163 0 -3.8e-09 7.61415e-07 1.59293e-34
151 2 0.001 -0.0175 0 -0.04389 -0.143169 0 -3.8e-09 6.92105e-07 1.59293e-34
301 3 0.001 -0.0125 0 -0.04389 -0.120405 0 -3.8e-09 4.89437e-07 1.59293e-34
451 4 0.001 -0.0075 0 -0.04389 -0.0852289 0 -3.8e-09 2.45191e-07 1.59293e-34
601 5 0.001 -0.0025 0 -0.04389 -0.0502346 0 -3.8e-09 8.51696e-08 1.59293e-34
751 6 0.001 0.0025 0 -0.04389 -0.0238267 0 -3.8e-09 1.91595e-08 1.59293e-34
901 7 0.001 0.0075 0 -0.04389 0.00177495 0 -3.8e-09 1.06322e-10 1.59293e-34
1051 8 0.001 0.0125 0 -0.04389 0.0280934 0 -3.8e-09 2.66359e-08 1.59293e-34
1201 9 0.001 0.0175 0 -0.04389 0.0591883 0 -3.8e-09 1.18239e-07 1.59293e-34
1351 10 0.001 0.0225 0 -0.04389 0.0743176 0 -3.8e-09 1.86421e-07 1.59293e-34
2 1 0.001 -0.0225 0 -0.0432524 0.150021 0 -0.0165539 1.5163e-06 1.13582e-08
3 1 0.001 -0.0224697 0 -0.0426183 -3.22174e-08 0 -3.74279e-09 2.25685e-06 2.26487e-08
152 2 0.001 -0.0175 0 -0.0432524 0.143324 0 -0.0183481 1.37472e-06 1.39346e-08
153 2 0.001 -0.0174711 0 -0.0426185 5.6127e-08 0 2.47713e-08 2.04008e-06 2.77729e-08
302 3 0.001 -0.0125 0 -0.0432524 0.120693 0 -0.0208722 9.7013e-07 1.8038e-08
303 3 0.001 -0.0124758 0 -0.0426188 -4.19557e-08 0 2.09385e-08 1.43591e-06 3.5979e-08
452 4 0.001 -0.0075 0 -0.0432524 0.0881142 0 -0.0114152 4.72403e-07 5.33121e-09
453 4 0.001 -0.00748279 0 -0.0426169 -3.44442e-08 0 7.56924e-09 6.80761e-07 1.05808e-08
602 5 0.001 -0.0025 0 -0.0432524 0.0528959 0 -0.0095292 1.6109e-07 3.73482e-09
603 5 0.001 -0.00248985 0 -0.0426165 -3.10487e-08 0 -1.359e-08 2.27864e-07 7.43551e-09
752 6 0.001 0.0025 0 -0.0432524 0.0262838 0 -0.00931414 3.44784e-08 3.5865e-09
753 6 0.001 0.00250481 0 -0.0426164 -5.0054e-08 0 -1.85174e-08 4.63066e-08 7.15966e-09
902 7 0.001 0.0075 0 -0.0432524 0.000387283 0 -0.00851589 6.26925e-10 3.01114e-09
903 7 0.001 0.00749964 0 -0.0426162 1.6874e-08 0 -2.69991e-09 1.87024e-09 6.02417e-09
1052 8 0.001 0.0125 0 -0.0432524 -0.0264364 0 -0.00759835 5.6364e-08 2.40568e-09
1053 8 0.001 0.0124943 0 -0.0426161 -2.33608e-08 0 3.43055e-09 8.92031e-08 4.82062e-09
1202 9 0.001 0.0175 0 -0.0432524 -0.0585607 0 -0.00632739 2.38516e-07 1.66748e-09
1203 9 0.001 0.017488 0 -0.042616 -2.64231e-09 0 2.55237e-09 3.6036e-07 3.33942e-09
1352 10 0.001 0.0225 0 -0.0432524 -0.0743142 0 -0.00590908 3.7216e-07 1.44862e-09
1353 10 0.001 0.022485 0 -0.042616 -1.50002e-09 0 6.67425e-10 5.56525e-07 2.89486e-09
4 1 0.001 -0.0224094 0 -0.0419863 -8.67607e-08 0 -3.57727e-09 2.21416e-06 2.24641e-08
5 1 0.001 -0.0223194 0 -0.0413579 -1.42924e-07 0 1.39214e-09 2.1492e-06 2.21845e-08
154 2 0.001 -0.0174137 0 -0.0419866 1.4722e-07 0 4.79059e-08 1.98877e-06 2.75268e-08
155 2 0.001 -0.0173281 0 -0.0413578 2.451e-07 0 7.2326e-08 1.91565e-06 2.71778e-08
304 3 0.001 -0.0124275 0 -0.0419865 -1.18925e-07 0 4.51133e-08 1.39158e-06 3.57365e-08
305 3 0.001 -0.0123557 0 -0.0413564 -2.04698e-07 0 7.0919e-08 1.33014e-06 3.54017e-08
454 4 0.001 -0.00744903 0 -0.0419821 -7.90316e-08 0 1.58537e-08 6.24481e-07 1.04151e-08
455 4 0.001 -0.00739944 0 -0.0413483 -1.1314e-07 0 2.46449e-08 5.66426e-07 1.02454e-08
604 5 0.001 -0.00247013 0 -0.0419808 -9.12743e-08 0 -2.84606e-08 2.00538e-07 7.36801e-09
605 5 0.001 -0.00244142 0 -0.0413454 -1.65559e-07 0 -4.02877e-08 1.73855e-07 7.30243e-09
754 6 0.001 0.00251393 0 -0.0419804 -1.29751e-07 0 -3.63324e-08 3.58756e-08 7.13437e-09
755 6 0.001 0.00252683 0 -0.0413445 -2.17466e-07 0 -5.19163e-08 2.66132e-08 7.11199e-09
904 7 0.001 0.00749849 0 -0.0419801 4.08563e-08 0 -4.80247e-09 4.03059e-09 6.02899e-09
905 7 0.001 0.00749611 0 -0.0413439 6.41754e-08 0 -6.54053e-09 7.08966e-09 6.03581e-09
1054 8 0.001 0.0124826 0 -0.0419799 -6.26306e-08 0 6.63189e-09 9.85054e-08 4.83916e-09
1055 8 0.001 0.0124647 0 -0.0413439 -1.11099e-07 0 8.79048e-09 1.07772e-07 4.85766e-09
1205 9 0.001 0.0174278 0 -0.0413444 -1.3184e-08 0 3.54515e-09 3.68292e-07 3.35257e-09
1204 9 0.001 0.017464 0 -0.0419799 -7.24596e-09 0 3.14316e-09 3.65048e-07 3.34719e-09
1354 10 0.001 0.022455 0 -0.0419801 -4.29287e-09 0 3.35503e-10 5.52414e-07 2.88852e-09
1355 10 0.001 0.02241 0 -0.0413451 -8.15354e-09 0 -1.49423e-10 5.46263e-07 2.87905e-09
6 1 0.001 -0.0222003 0 -0.0407343 -1.92607e-07 0 1.20961e-08 2.06345e-06 2.18183e-08
7 1 0.001 -0.0220531 0 -0.0401167 -2.27604e-07 0 1.98524e-08 1.95885e-06 2.13756e-08
8 1 0.001 -0.0218787 0 -0.0395062 -2.49985e-07 0 2.08347e-08 1.83775e-06 2.08688e-08
156 2 0.001 -0.0172151 0 -0.0407334 3.27397e-07 0 9.37103e-08 1.82254e-06 2.67367e-08
157 2 0.001 -0.0170756 0 -0.0401143 3.76668e-07 0 1.16042e-07 1.71173e-06 2.62163e-08
158 2 0.001 -0.0169106 0 -0.0395015 3.88758e-07 0 1.4498e-07 1.58592e-06 2.56316e-08
306 3 0.001 -0.012261 0 -0.0407293 -2.91467e-07 0 9.7008e-08 1.25327e-06 3.49851e-08
307 3 0.001 -0.0121441 0 -0.040106 -3.58093e-07 0 1.22766e-07 1.16307e-06 3.44995e-08
308 3 0.001 -0.0120061 0 -0.039487 -3.94862e-07 0 1.45294e-07 1.06197e-06 3.39592e-08
456 4 0.001 -0.0073348 0 -0.0407159 -1.24434e-07 0 2.75264e-08 5.0745e-07 1.00745e-08
457 4 0.001 -0.00725596 0 -0.040085 -1.04135e-07 0 2.76263e-08 4.4841e-07 9.90486e-09
458 4 0.001 -0.00716381 0 -0.039456 -6.27389e-08 0 2.64394e-08 3.90153e-07 9.73888e-09
606 5 0.001 -0.00240437 0 -0.0407105 -2.37115e-07 0 -4.9524e-08 1.48138e-07 7.23953e-09
607 5 0.001 -0.00235961 0 -0.040076 -2.98197e-07 0 -6.04842e-08 1.23697e-07 7.18002e-09
608 5 0.001 -0.00230783 0 -0.0394421 -3.38249e-07 0 -6.94042e-08 1.00822e-07 7.12459e-09
756 6 0.001 0.00254297 0 -0.0407087 -2.98473e-07 0 -6.85105e-08 1.86282e-08 7.09276e-09
757 6 0.001 0.00256182 0 -0.0400729 -3.55808e-07 0 -8.48427e-08 1.20142e-08 7.07689e-09
758 6 0.001 0.00258283 0 -0.0394372 -3.80948e-07 0 -1.02641e-07 6.8484e-09 7.06457e-09
906 7 0.001 0.00749208 0 -0.0407078 8.04078e-08 0 -8.11e-09 1.10145e-08 6.04457e-09
907 7 0.001 0.00748596 0 -0.0400716 8.61847e-08 0 -1.20205e-08 1.57627e-08 6.05519e-09
908 7 0.001 0.00747735 0 -0.0394355 7.91649e-08 0 -1.55724e-08 2.1283e-08 6.06754e-09
1056 8 0.001 0.0124401 0 -0.040708 -1.60923e-07 0 1.11594e-08 1.16912e-07 4.87593e-09
1057 8 0.001 0.0124087 0 -0.0400725 -2.04399e-07 0 1.27262e-08 1.25836e-07 4.89379e-09
1058 8 0.001 0.0123701 0 -0.0394373 -2.37275e-07 0 1.55119e-08 1.34455e-07 4.91107e-09
1206 9 0.001 0.0173795 0 -0.0407097 -2.03091e-08 0 5.77166e-09 3.70062e-07 3.35549e-09
1207 9 0.001 0.017319 0 -0.0400761 -2.77564e-08 0 6.98155e-09 3.70344e-07 3.35595e-09
1208 9 0.001 0.0172463 0 -0.0394437 -3.48448e-08 0 7.94617e-09 3.69135e-07 3.35393e-09
1356 10 0.001 0.0223503 0 -0.0407113 -1.29933e-08 0 5.45097e-10 5.38122e-07 2.86654e-09
1357 10 0.001 0.0222759 0 -0.040079 -1.88542e-08 0 4.03277e-10 5.28056e-07 2.8511e-09
1358 10 0.001 0.022187 0 -0.0394487 -2.6508e-08 0 4.32712e-10 5.16146e-07 2.8329e-09
9 1 0.001 -0.0216783 0 -0.0389036 -2.54363e-07 0 1.97569e-08 1.7028e-06 2.03113e-08
10 1 0.001 -0.0214532 0 -0.0383099 -2.42425e-07 0 1.64513e-08 1.55693e-06 1.97172e-08
159 2 0.001 -0.0167213 0 -0.0388957 3.60791e-07 0 1.81813e-07 1.4481e-06 2.49986e-08
160 2 0.001 -0.0165091 0 -0.0382975 3.07711e-07 0 2.25744e-07 1.30152e-06 2.43341e-08
309 3 0.001 -0.0118479 0 -0.0388728 -3.87773e-07 0 1.56683e-07 9.52679e-07 3.33799e-08
310 3 0.001 -0.0116709 0 -0.0382637 -3.46015e-07 0 1.54678e-07 8.38071e-07 3.27778e-08
459 4 0.001 -0.00705927 0 -0.0388288 -3.75796e-10 0 1.86235e-08 3.33505e-07 9.57882e-09
460 4 0.001 -0.00694334 0 -0.0382037 7.79148e-08 0 8.94912e-09 2.79261e-07 9.42678e-09
609 5 0.001 -0.00224972 0 -0.0388087 -3.58743e-07 0 -7.78129e-08 7.97844e-08 7.07384e-09
610 5 0.001 -0.00218599 0 -0.0381758 -3.53764e-07 0 -8.92339e-08 6.08331e-08 7.02831e-09
759 6 0.001 0.00260543 0 -0.0388015 -3.74502e-07 0 -1.18085e-07 3.19063e-09 7.05593e-09
760 6 0.001 0.00262907 0 -0.0381659 -3.35185e-07 0 -1.30957e-07 1.08306e-09 7.05105e-09
909 7 0.001 0.00746582 0 -0.0387995 5.77786e-08 0 -1.8927e-08 2.75157e-08 6.08151e-09
910 7 0.001 0.00745097 0 -0.0381635 2.41737e-08 0 -2.33636e-08 3.43929e-08 6.09694e-09
1059 8 0.001 0.0123242 0 -0.0388027 -2.5725e-07 0 1.91795e-08 1.42683e-07 4.92758e-09
1060 8 0.001 0.0122708 0 -0.0381686 -2.64598e-07 0 2.21739e-08 1.50439e-07 4.94316e-09
1209 9 0.001 0.0171615 0 -0.0388129 -4.06629e-08 0 9.24932e-09 3.66447e-07 3.34945e-09
1210 9 0.001 0.0170646 0 -0.0381837 -4.46718e-08 0 1.02661e-08 3.623e-07 3.34255e-09
1359 10 0.001 0.0220838 0 -0.0388205 -3.58363e-08 0 1.75167e-10 5.02484e-07 2.81208e-09
1360 10 0.001 0.0219666 0 -0.0381947 -4.59005e-08 0 -9.26367e-10 4.8718e-07 2.78886e-09
11 1 0.001 -0.0212049 0 -0.0377254 -2.10661e-07 0 7.44597e-09 1.40323e-06 1.91007e-08
12 1 0.001 -0.0209348 0 -0.0371506 -1.62348e-07 0 -1.178e-08 1.24489e-06 1.84759e-08
13 1 0.001 -0.0206447 0 -0.0365856 -1.06241e-07 0 -3.91415e-08 1.08514e-06 1.7856e-08
161 2 0.001 -0.0162754 0 -0.0377073 2.32807e-07 0 2.7593e-07 1.14959e-06 2.36547e-08
162 2 0.001 -0.0160219 0 -0.0371253 1.48298e-07 0 3.30186e-07 9.95745e-07 2.29765e-08
163 2 0.001 -0.0157502 0 -0.0365515 6.49526e-08 0 3.82083e-07 8.43415e-07 2.23147e-08
311 3 0.001 -0.0114763 0 -0.03766 -2.74101e-07 0 1.39446e-07 7.21136e-07 3.21692e-08
312 3 0.001 -0.0112657 0 -0.0370617 -1.81564e-07 0 1.12239e-07 6.0488e-07 3.15698e-08
313 3 0.001 -0.0110404 0 -0.0364687 -8.59771e-08 0 8.25229e-08 4.92254e-07 3.09945e-08
461 4 0.001 -0.00681701 0 -0.0375805 1.68281e-07 0 -5.24756e-09 2.2817e-07 9.28469e-09
462 4 0.001 -0.00668132 0 -0.0369593 2.56093e-07 0 -1.58878e-08 1.80933e-07 9.15425e-09
463 4 0.001 -0.00653734 0 -0.03634 3.26165e-07 0 -2.37997e-08 1.38189e-07 9.03699e-09
611 5 0.001 -0.00211736 0 -0.0375435 -3.21882e-07 0 -9.87888e-08 4.41894e-08 6.98848e-09
612 5 0.001 -0.00204458 0 -0.0369116 -2.78377e-07 0 -1.10104e-07 3.00472e-08 6.95477e-09
613 5 0.001 -0.00196839 0 -0.0362801 -2.26536e-07 0 -1.23912e-07 1.85704e-08 6.92752e-09
761 6 0.001 0.00265318 0 -0.0375303 -2.70566e-07 0 -1.3946e-07 5.49709e-10 7.04998e-09
762 6 0.001 0.00267721 0 -0.0368947 -1.88915e-07 0 -1.45777e-07 1.59632e-09 7.05273e-09
763 6 0.001 0.00270057 0 -0.0362591 -1.0435e-07 0 -1.50355e-07 4.21032e-09 7.05927e-09
911 7 0.001 0.00743242 0 -0.0375276 -1.86457e-08 0 -2.69495e-08 4.18399e-08 6.11368e-09
912 7 0.001 0.00740977 0 -0.0368918 -6.5982e-08 0 -3.08368e-08 4.97753e-08 6.13154e-09
913 7 0.001 0.00738264 0 -0.0362562 -1.13658e-07 0 -3.80915e-08 5.81121e-08 6.15034e-09
1061 8 0.001 0.0122095 0 -0.0375353 -2.60001e-07 0 2.58629e-08 1.57647e-07 4.95764e-09
1062 8 0.001 0.0121404 0 -0.0369028 -2.46939e-07 0 3.03476e-08 1.64233e-07 4.97088e-09
1063 8 0.001 0.0120631 0 -0.0362712 -2.30622e-07 0 3.57244e-08 1.70133e-07 4.98274e-09
1211 9 0.001 0.0169558 0 -0.0375566 -4.67259e-08 0 1.11232e-08 3.56731e-07 3.3333e-09
1212 9 0.001 0.0168352 0 -0.0369316 -4.6664e-08 0 1.23168e-08 3.49785e-07 3.32178e-09
1213 9 0.001 0.016703 0 -0.0363089 -4.42017e-08 0 1.47388e-08 3.41521e-07 3.30812e-09
1361 10 0.001 0.0218356 0 -0.0375717 -5.53569e-08 0 -2.31795e-09 4.70353e-07 2.76344e-09
1362 10 0.001 0.0216912 0 -0.0369517 -6.36992e-08 0 -4.04565e-09 4.52135e-07 2.73604e-09
1363 10 0.001 0.0215336 0 -0.0363349 -7.10131e-08 0 -5.64359e-09 4.32667e-07 2.70691e-09
14 1 0.001 -0.0203361 0 -0.0360304 -5.09318e-08 0 -6.25856e-08 9.27133e-07 1.72534e-08
15 1 0.001 -0.0200108 0 -0.0354848 -7.49582e-10 0 -8.00362e-08 7.73944e-07 1.6679e-08
16 1 0.001 -0.0196705 0 -0.0349484 3.81009e-08 0 -9.3872e-08 6.28473e-07 1.61425e-08
164 2 0.001 -0.015462 0 -0.0359858 -3.43293e-10 0 4.18925e-07 6.9592e-07 2.16831e-08
165 2 0.001 -0.015159 0 -0.0354279 -3.97282e-08 0 4.33036e-07 5.56412e-07 2.1094e-08
166 2 0.001 -0.014843 0 -0.0348771 -4.52056e-08 0 4.26651e-07 4.27811e-07 2.05581e-08
314 3 0.001 -0.010802 0 -0.0358808 3.57329e-09 0 5.11296e-08 3.86078e-07 3.0457e-08
315 3 0.001 -0.0105522 0 -0.0352976 7.56256e-08 0 2.37017e-08 2.88979e-07 2.99695e-08
464 4 0.001 -0.00638615 0 -0.0357224 3.68468e-07 0 -2.5061e-08 1.00514e-07 8.93423e-09
465 4 0.001 -0.00622883 0 -0.0351063 3.75615e-07 0 -2.23819e-08 6.84076e-08 8.84709e-09
614 5 0.001 -0.00188956 0 -0.0356489 -1.6965e-07 0 -1.35974e-07 9.89157e-09 6.90702e-09
615 5 0.001 -0.00180885 0 -0.035018 -1.07909e-07 0 -1.46996e-07 4.11074e-09 6.89346e-09
764 6 0.001 0.00272272 0 -0.0356234 -2.24758e-08 0 -1.55979e-07 8.36101e-09 7.06952e-09
765 6 0.001 0.00274308 0 -0.0349877 4.94925e-08 0 -1.56938e-07 1.39999e-08 7.08338e-09
914 7 0.001 0.00735069 0 -0.0356209 -1.58322e-07 0 -4.54639e-08 6.67588e-08 6.16987e-09
915 7 0.001 0.00731356 0 -0.0349858 -1.92671e-07 0 -5.22022e-08 7.562e-08 6.18992e-09
1064 8 0.001 0.0119776 0 -0.0356406 -2.14246e-07 0 4.09678e-08 1.75288e-07 4.9931e-09
1065 8 0.001 0.0118838 0 -0.0350113 -2.00651e-07 0 4.55179e-08 1.79647e-07 5.00184e-09
1214 9 0.001 0.0165592 0 -0.0356888 -3.83232e-08 0 1.69998e-08 3.32008e-07 3.29242e-09
1215 9 0.001 0.0164042 0 -0.0350715 -2.87073e-08 0 1.93084e-08 3.21326e-07 3.27483e-09
1364 10 0.001 0.0213632 0 -0.0357214 -7.72081e-08 0 -7.63727e-09 4.12098e-07 2.67631e-09
1365 10 0.001 0.0211805 0 -0.0351116 -8.19493e-08 0 -8.7078e-09 3.90585e-07 2.64449e-09
17 1 0.001 -0.0193169 0 -0.0344206 5.46216e-08 0 -9.81204e-08 4.9341e-07 1.56523e-08
18 1 0.001 -0.0189517 0 -0.0339008 5.49906e-08 0 -9.0636e-08 3.71199e-07 1.52152e-08
19 1 0.001 -0.0185766 0 -0.0333879 3.65639e-08 0 -6.90699e-08 2.64006e-07 1.48369e-08
167 2 0.001 -0.0145157 0 -0.034333 -1.69256e-08 0 3.97233e-07 3.12758e-07 2.00844e-08
168 2 0.001 -0.0141789 0 -0.0337946 3.89097e-08 0 3.49786e-07 2.13573e-07 1.96805e-08
169 2 0.001 -0.0138344 0 -0.0332612 1.10772e-07 0 2.91555e-07 1.32226e-07 1.93521e-08
316 3 0.001 -0.0102926 0 -0.0347187 1.37868e-07 0 7.25897e-10 2.03329e-07 2.95427e-08
317 3 0.001 -0.0100249 0 -0.0341435 1.78576e-07 0 -1.67266e-08 1.31199e-07 2.91856e-08
318 3 0.001 -0.00975071 0 -0.0335713 1.95547e-07 0 -2.95536e-08 7.43167e-08 2.89055e-08
466 4 0.001 -0.00606651 0 -0.0344915 3.52056e-07 0 -1.79301e-08 4.22966e-08 8.77651e-09
467 4 0.001 -0.0059003 0 -0.0338777 2.95984e-07 0 -1.00338e-08 2.25243e-08 8.72322e-09
468 4 0.001 -0.00573133 0 -0.0332647 2.16509e-07 0 4.66416e-09 9.34994e-09 8.68777e-09
616 5 0.001 -0.00172702 0 -0.0343872 -4.02703e-08 0 -1.56943e-07 1.29438e-09 6.88698e-09
617 5 0.001 -0.00164485 0 -0.0337565 2.39277e-08 0 -1.64054e-07 1.47482e-09 6.88765e-09
766 6 0.001 0.00276111 0 -0.0343519 1.02987e-07 0 -1.52152e-07 2.10611e-08 7.10069e-09
767 6 0.001 0.00277626 0 -0.033716 1.34905e-07 0 -1.46354e-07 2.9462e-08 7.12125e-09
916 7 0.001 0.00727092 0 -0.0343511 -2.14849e-07 0 -5.914e-08 8.4598e-08 6.21027e-09
917 7 0.001 0.00722245 0 -0.0337168 -2.18404e-07 0 -6.55486e-08 9.35935e-08 6.2307e-09
1066 8 0.001 0.0117816 0 -0.0343833 -1.90715e-07 0 4.99157e-08 1.83165e-07 5.00888e-09
1067 8 0.001 0.0116709 0 -0.0337567 -1.85148e-07 0 5.30047e-08 1.85808e-07 5.01413e-09
1218 9 0.001 0.0158742 0 -0.0332371 1.6641e-08 0 3.36135e-08 2.8319e-07 3.21247e-09
1217 9 0.001 0.0160614 0 -0.0338454 -5.34672e-10 0 2.68481e-08 2.96816e-07 3.23468e-09
1216 9 0.001 0.0162382 0 -0.0344569 -1.59884e-08 0 2.26907e-08 3.09563e-07 3.25553e-09
1366 10 0.001 0.0209857 0 -0.0345055 -8.48016e-08 0 -8.56707e-09 3.68292e-07 2.61171e-09
1367 10 0.001 0.0207794 0 -0.0339032 -8.49293e-08 0 -8.9177e-09 3.45387e-07 2.57825e-09
1368 10 0.001 0.0205619 0 -0.0333048 -8.34353e-08 0 -8.26991e-09 3.22039e-07 2.54436e-09
20 1 0.001 -0.0181934 0 -0.0328812 1.28685e-08 0 -4.16415e-08 1.73694e-07 1.45219e-08
21 1 0.001 -0.0178036 0 -0.0323794 -8.72026e-09 0 -1.72666e-08 1.01808e-07 1.42735e-08
22 1 0.001 -0.0174089 0 -0.0318814 -2.75474e-08 0 8.35314e-09 4.95585e-08 1.40944e-08
170 2 0.001 -0.013484 0 -0.0327316 1.85941e-07 0 2.26744e-07 7.03116e-08 1.91039e-08
171 2 0.001 -0.0131293 0 -0.0322047 2.59613e-07 0 1.58108e-07 2.90288e-08 1.8939e-08
319 3 0.001 -0.00947181 0 -0.0330014 1.95e-07 0 -3.19419e-08 3.40353e-08 2.8708e-08
320 3 0.001 -0.00918989 0 -0.032433 1.73361e-07 0 -2.59568e-08 1.13071e-08 2.85967e-08
321 3 0.001 -0.00890667 0 -0.0318652 1.36038e-07 0 -1.32837e-08 6.66785e-09 2.85739e-08
469 4 0.001 -0.00556073 0 -0.0326521 1.27897e-07 0 1.95794e-08 2.94579e-09 8.67052e-09
470 4 0.001 -0.00538964 0 -0.0320397 2.59518e-08 0 3.84775e-08 3.3956e-09 8.67163e-09
618 5 0.001 -0.00156312 0 -0.0331257 8.03959e-08 0 -1.68304e-07 4.65002e-09 6.89545e-09
619 5 0.001 -0.00148259 0 -0.0324947 1.2198e-07 0 -1.66968e-07 1.07835e-08 6.91031e-09
620 5 0.001 -0.00140404 0 -0.0318635 1.50633e-07 0 -1.64607e-07 1.98047e-08 6.93209e-09
768 6 0.001 0.00278799 0 -0.0330801 1.43484e-07 0 -1.3768e-07 3.91043e-08 7.14485e-09
769 6 0.001 0.00279577 0 -0.0324441 1.31183e-07 0 -1.2708e-07 4.98746e-08 7.17122e-09
770 6 0.001 0.00279909 0 -0.0318081 1.02083e-07 0 -1.16173e-07 6.16459e-08 7.20006e-09
918 7 0.001 0.00716786 0 -0.033083 -2.02797e-07 0 -7.04452e-08 1.02507e-07 6.25098e-09
920 7 0.001 0.00703921 0 -0.0318173 -1.34486e-07 0 -7.85886e-08 1.19693e-07 6.29021e-09
919 7 0.001 0.00710687 0 -0.0324498 -1.73312e-07 0 -7.46408e-08 1.11239e-07 6.27089e-09
1070 8 0.001 0.0112876 0 -0.0318868 -1.90562e-07 0 5.68182e-08 1.88265e-07 5.01876e-09
1068 8 0.001 0.0115517 0 -0.0331317 -1.84198e-07 0 5.54985e-08 1.87549e-07 5.01755e-09
1069 8 0.001 0.0114239 0 -0.0325083 -1.8743e-07 0 5.70235e-08 1.88371e-07 5.0191e-09
1219 9 0.001 0.0156767 0 -0.0326319 3.52206e-08 0 4.16598e-08 2.68798e-07 3.18909e-09
1220 9 0.001 0.0154693 0 -0.0320301 5.53191e-08 0 4.83339e-08 2.53757e-07 3.16475e-09
1370 10 0.001 0.0200954 0 -0.0321201 -7.5185e-08 0 -3.23013e-09 2.74706e-07 2.47634e-09
1369 10 0.001 0.0203338 0 -0.0327104 -8.05028e-08 0 -6.14662e-09 2.98421e-07 2.5103e-09
23 1 0.001 -0.017011 0 -0.031386 -4.18001e-08 0 3.09062e-08 1.78172e-08 1.39861e-08
24 1 0.001 -0.0166114 0 -0.0308919 -5.04698e-08 0 4.417e-08 7.10891e-09 1.39496e-08
25 1 0.001 -0.0162119 0 -0.0303978 -4.81434e-08 0 4.30763e-08 1.76099e-08 1.39854e-08
172 2 0.001 -0.0127722 0 -0.0316796 3.24617e-07 0 9.29608e-08 9.17264e-09 1.88596e-08
173 2 0.001 -0.0124144 0 -0.0311549 3.74507e-07 0 3.20607e-08 1.11243e-08 1.88667e-08
174 2 0.001 -0.0120576 0 -0.0306295 3.95175e-07 0 -1.50864e-08 3.4848e-08 1.89602e-08
322 3 0.001 -0.00862388 0 -0.0312972 9.42979e-08 0 6.32286e-09 2.02273e-08 2.86399e-08
323 3 0.001 -0.00834323 0 -0.0307281 4.80566e-08 0 2.85928e-08 5.16673e-08 2.87936e-08
471 4 0.001 -0.00521919 0 -0.0314271 -8.03644e-08 0 6.32861e-08 1.06937e-08 8.6911e-09
472 4 0.001 -0.00505052 0 -0.030814 -1.75058e-07 0 8.55938e-08 2.47453e-08 8.72872e-09
621 5 0.001 -0.00132822 0 -0.031232 1.59757e-07 0 -1.57796e-07 3.16094e-08 6.96055e-09
622 5 0.001 -0.0012559 0 -0.0306001 1.48542e-07 0 -1.46466e-07 4.60609e-08 6.99542e-09
771 6 0.001 0.00279742 0 -0.031172 6.8648e-08 0 -1.04949e-07 7.42789e-08 7.23105e-09
772 6 0.001 0.0027903 0 -0.0305361 4.50946e-08 0 -9.05345e-08 8.76236e-08 7.26383e-09
922 7 0.001 0.00688296 0 -0.0305547 -5.35019e-08 0 -8.02121e-08 1.35396e-07 6.3262e-09
921 7 0.001 0.00696465 0 -0.0311855 -9.27786e-08 0 -8.00093e-08 1.27776e-07 6.30872e-09
1071 8 0.001 0.0111428 0 -0.0312672 -1.89682e-07 0 5.79827e-08 1.87233e-07 5.01653e-09
1072 8 0.001 0.0109895 0 -0.0306496 -1.80716e-07 0 6.16985e-08 1.85285e-07 5.01243e-09
1221 9 0.001 0.0152524 0 -0.0314316 7.5348e-08 0 5.49489e-08 2.38188e-07 3.13966e-09
1222 9 0.001 0.0150263 0 -0.0308366 9.47272e-08 0 6.13875e-08 2.22217e-07 3.11403e-09
1223 9 0.001 0.0147913 0 -0.0302449 1.12485e-07 0 6.71615e-08 2.05973e-07 3.08807e-09
1371 10 0.001 0.0198473 0 -0.0315337 -6.76031e-08 0 1.17461e-09 2.51066e-07 2.4427e-09
1372 10 0.001 0.0195899 0 -0.0309514 -5.82423e-08 0 4.67931e-09 2.27669e-07 2.40965e-09
1373 10 0.001 0.0193239 0 -0.0303729 -4.76178e-08 0 8.18888e-09 2.04683e-07 2.37739e-09
26 1 0.001 -0.0158139 0 -0.0299024 -3.73882e-08 0 3.46115e-08 4.91467e-08 1.40929e-08
27 1 0.001 -0.0154192 0 -0.0294045 -1.5741e-08 0 1.73625e-08 1.01197e-07 1.42714e-08
28 1 0.001 -0.0150293 0 -0.0289027 1.61433e-08 0 -9.69511e-09 1.72894e-07 1.45191e-08
175 2 0.001 -0.0117035 0 -0.0301023 3.87669e-07 0 -4.69297e-08 7.98911e-08 1.91389e-08
176 2 0.001 -0.011354 0 -0.0295721 3.53476e-07 0 -5.90428e-08 1.45388e-07 1.94006e-08
177 2 0.001 -0.0110108 0 -0.0290378 2.84693e-07 0 -4.9281e-08 2.30068e-07 1.97417e-08
324 3 0.001 -0.00806643 0 -0.0301572 2.84872e-09 0 4.91569e-08 1.00247e-07 2.90319e-08
325 3 0.001 -0.00779521 0 -0.0295836 -4.67724e-08 0 7.5204e-08 1.64816e-07 2.93503e-08
326 3 0.001 -0.00753126 0 -0.0290067 -8.71472e-08 0 1.00465e-07 2.43833e-07 2.97423e-08
473 4 0.001 -0.00488476 0 -0.0302001 -2.50151e-07 0 1.00787e-07 4.53668e-08 8.78412e-09
474 4 0.001 -0.00472303 0 -0.0295851 -2.95756e-07 0 1.06734e-07 7.2288e-08 8.85673e-09
475 4 0.001 -0.00456646 0 -0.0289688 -3.04901e-07 0 1.03666e-07 1.05155e-07 8.94581e-09
623 5 0.001 -0.00118782 0 -0.0299677 1.19953e-07 0 -1.34509e-07 6.29911e-08 7.03634e-09
624 5 0.001 -0.00112473 0 -0.0293347 7.74518e-08 0 -1.19048e-07 8.22019e-08 7.08287e-09
625 5 0.001 -0.00106734 0 -0.0287013 3.34754e-08 0 -1.01625e-07 1.03468e-07 7.13453e-09
773 6 0.001 0.00277724 0 -0.0299002 3.74579e-08 0 -7.24539e-08 1.01521e-07 7.29801e-09
774 6 0.001 0.00275779 0 -0.0292644 4.78044e-08 0 -5.19984e-08 1.15804e-07 7.33319e-09
923 7 0.001 0.00679394 0 -0.0299248 -2.06036e-08 0 -8.11524e-08 1.4247e-07 6.34247e-09
924 7 0.001 0.00669742 0 -0.029296 7.89787e-09 0 -8.22794e-08 1.48917e-07 6.35733e-09
1073 8 0.001 0.0108279 0 -0.0300342 -1.60698e-07 0 6.88296e-08 1.8244e-07 5.00651e-09
1075 8 0.001 0.0104799 0 -0.0288102 -8.71281e-08 0 9.08352e-08 1.74186e-07 4.98947e-09
1074 8 0.001 0.010658 0 -0.029421 -1.2907e-07 0 7.89644e-08 1.78728e-07 4.99883e-09
1225 9 0.001 0.0142965 0 -0.0290719 1.39961e-07 0 7.56294e-08 1.7318e-07 3.036e-09
1224 9 0.001 0.014548 0 -0.0296567 1.27934e-07 0 7.20693e-08 1.89584e-07 3.06199e-09
1375 10 0.001 0.0187675 0 -0.0292275 -2.58762e-08 0 1.9818e-08 1.60582e-07 2.3161e-09
1374 10 0.001 0.0190495 0 -0.0297984 -3.69011e-08 0 1.34442e-08 1.82269e-07 2.34614e-09
29 1 0.001 -0.014646 0 -0.028396 5.33039e-08 0 -3.63614e-08 2.6303e-07 1.48335e-08
30 1 0.001 -0.0142708 0 -0.0278833 8.84617e-08 0 -6.46947e-08 3.70064e-07 1.52113e-08
31 1 0.001 -0.0139055 0 -0.0273635 1.28423e-07 0 -9.31678e-08 4.9214e-07 1.56479e-08
178 2 0.001 -0.0106756 0 -0.0284985 1.86007e-07 0 -2.20575e-08 3.32268e-07 2.01576e-08
179 2 0.001 -0.0103502 0 -0.0279532 6.1292e-08 0 1.23735e-08 4.49953e-07 2.06419e-08
180 2 0.001 -0.0100363 0 -0.0274012 -6.58344e-08 0 4.89007e-08 5.80741e-07 2.1187e-08
327 3 0.001 -0.00727626 0 -0.0284258 -1.23635e-07 0 1.30131e-07 3.35397e-07 3.01998e-08
328 3 0.001 -0.00703188 0 -0.0278403 -1.43807e-07 0 1.55528e-07 4.37281e-07 3.07129e-08
329 3 0.001 -0.00679974 0 -0.0272499 -1.51542e-07 0 1.75034e-07 5.46978e-07 3.12701e-08
476 4 0.001 -0.00441614 0 -0.028351 -2.77009e-07 0 8.87877e-08 1.43531e-07 9.05039e-09
477 4 0.001 -0.00427319 0 -0.0277314 -2.17094e-07 0 6.89578e-08 1.86906e-07 9.16934e-09
626 5 0.001 -0.00101636 0 -0.0280673 -1.30865e-08 0 -8.46501e-08 1.26537e-07 7.19074e-09
627 5 0.001 -0.000972497 0 -0.0274328 -5.3082e-08 0 -6.99738e-08 1.51135e-07 7.25089e-09
775 6 0.001 0.00273152 0 -0.028629 7.7607e-08 0 -3.16731e-08 1.30303e-07 7.36896e-09
776 6 0.001 0.00269801 0 -0.0279938 1.22274e-07 0 -1.36979e-08 1.44843e-07 7.40489e-09
777 6 0.001 0.00265687 0 -0.0273591 1.78733e-07 0 5.77991e-09 1.59249e-07 7.44056e-09
925 7 0.001 0.00659325 0 -0.0286685 2.93392e-08 0 -8.5225e-08 1.54667e-07 6.37062e-09
926 7 0.001 0.00648128 0 -0.0280423 4.16124e-08 0 -8.99083e-08 1.59653e-07 6.38218e-09
927 7 0.001 0.00636143 0 -0.0274175 4.08265e-08 0 -9.59709e-08 1.63822e-07 6.39189e-09
1077 8 0.001 0.0100997 0 -0.0275957 1.56379e-08 0 1.20194e-07 1.62803e-07 4.96614e-09
1076 8 0.001 0.0102937 0 -0.0282017 -3.72577e-08 0 1.04961e-07 1.6886e-07 4.97854e-09
1226 9 0.001 0.0140374 0 -0.0284905 1.47687e-07 0 7.74382e-08 1.56891e-07 3.01031e-09
1227 9 0.001 0.013771 0 -0.0279123 1.50597e-07 0 7.65049e-08 1.40843e-07 2.9851e-09
1228 9 0.001 0.0134978 0 -0.0273373 1.48007e-07 0 7.39757e-08 1.25161e-07 2.96058e-09
1376 10 0.001 0.0184783 0 -0.0286603 -1.42314e-08 0 2.56985e-08 1.39774e-07 2.28746e-09
1377 10 0.001 0.0181824 0 -0.0280965 -2.48729e-09 0 2.98421e-08 1.19985e-07 2.26038e-09
1378 10 0.001 0.0178803 0 -0.027536 7.08771e-09 0 3.45997e-08 1.0135e-07 2.23503e-09
32 1 0.001 -0.0135518 0 -0.0268358 1.77685e-07 0 -1.23336e-07 6.27094e-07 1.61378e-08
33 1 0.001 -0.0132113 0 -0.0262995 2.18264e-07 0 -1.44421e-07 7.72489e-07 1.66741e-08
34 1 0.001 -0.0128859 0 -0.025754 2.4328e-07 0 -1.54751e-07 9.25636e-07 1.72484e-08
181 2 0.001 -0.00973584 0 -0.0268419 -1.81844e-07 0 8.26508e-08 7.21932e-07 2.17836e-08
182 2 0.001 -0.00945045 0 -0.0262748 -2.79156e-07 0 1.0638e-07 8.70561e-07 2.24206e-08
330 3 0.001 -0.00658144 0 -0.0266543 -1.45477e-07 0 1.88284e-07 6.61756e-07 3.18585e-08
331 3 0.001 -0.00637849 0 -0.0260534 -1.2118e-07 0 1.93094e-07 7.7872e-07 3.24637e-08
478 4 0.001 -0.00413867 0 -0.02711 -1.35474e-07 0 4.48441e-08 2.34695e-07 9.30131e-09
479 4 0.001 -0.00401365 0 -0.0264866 -4.15981e-08 0 2.3138e-08 2.86251e-07 9.44474e-09
480 4 0.001 -0.00389915 0 -0.0258612 5.13221e-08 0 7.53859e-09 3.40866e-07 9.59789e-09
628 5 0.001 -0.00093641 0 -0.0267978 -8.19384e-08 0 -5.38529e-08 1.76968e-07 7.31431e-09
629 5 0.001 -0.000908751 0 -0.0261624 -9.36099e-08 0 -4.09551e-08 2.03724e-07 7.38026e-09
778 6 0.001 0.00260773 0 -0.026725 2.36414e-07 0 2.50024e-08 1.73346e-07 7.47552e-09
779 6 0.001 0.00255027 0 -0.0260916 2.88462e-07 0 4.2217e-08 1.86965e-07 7.50936e-09
928 7 0.001 0.00623359 0 -0.0267944 2.29309e-08 0 -1.05558e-07 1.67124e-07 6.39962e-09
929 7 0.001 0.00609772 0 -0.0261729 -9.46787e-09 0 -1.16525e-07 1.69523e-07 6.40528e-09
1078 8 0.001 0.00989796 0 -0.0269922 6.50536e-08 0 1.35822e-07 1.56077e-07 4.9524e-09
1079 8 0.001 0.00968871 0 -0.0263913 1.05085e-07 0 1.48939e-07 1.48748e-07 4.93747e-09
1080 8 0.001 0.00947216 0 -0.025793 1.31556e-07 0 1.55549e-07 1.40889e-07 4.9215e-09
1231 9 0.001 0.0126416 0 -0.0256303 1.13996e-07 0 4.90249e-08 8.14941e-08 2.89285e-09
1230 9 0.001 0.0129327 0 -0.0261964 1.2935e-07 0 5.87956e-08 9.53726e-08 2.91429e-09
1229 9 0.001 0.0132182 0 -0.0267654 1.40424e-07 0 6.83126e-08 1.09965e-07 2.93692e-09
1381 10 0.001 0.0169427 0 -0.0258718 2.86002e-08 0 4.52551e-08 5.35721e-08 2.17069e-09
1380 10 0.001 0.01726 0 -0.0264239 2.26937e-08 0 4.20044e-08 6.8033e-08 2.19006e-09
1379 10 0.001 0.0175727 0 -0.0269785 1.48452e-08 0 3.92386e-08 8.39941e-08 2.21155e-09
35 1 0.001 -0.0125772 0 -0.0251989 2.47099e-07 0 -1.52496e-07 1.08364e-06 1.78512e-08
36 1 0.001 -0.0122868 0 -0.024634 2.23848e-07 0 -1.3576e-07 1.24343e-06 1.84713e-08
183 2 0.001 -0.00918188 0 -0.0256996 -3.54049e-07 0 1.12392e-07 1.02344e-06 2.30854e-08
184 2 0.001 -0.00893183 0 -0.0251161 -3.95946e-07 0 1.02573e-07 1.17722e-06 2.3764e-08
185 2 0.001 -0.00870193 0 -0.0245245 -3.95027e-07 0 8.5141e-08 1.32847e-06 2.44411e-08
332 3 0.001 -0.00619238 0 -0.025447 -8.95187e-08 0 1.93497e-07 8.94879e-07 3.30704e-08
333 3 0.001 -0.00602448 0 -0.0248354 -4.50903e-08 0 1.90951e-07 1.00723e-06 3.36624e-08
334 3 0.001 -0.00587605 0 -0.0242188 -1.43147e-10 0 1.93775e-07 1.11281e-06 3.42235e-08
481 4 0.001 -0.00379619 0 -0.0252338 1.26257e-07 0 2.9895e-10 3.97784e-07 9.7588e-09
482 4 0.001 -0.00370573 0 -0.0246044 1.78109e-07 0 -3.01135e-09 4.56207e-07 9.92535e-09
630 5 0.001 -0.000890142 0 -0.0255266 -9.42084e-08 0 -3.25154e-08 2.3108e-07 7.44797e-09
631 5 0.001 -0.000881178 0 -0.0248907 -8.70719e-08 0 -1.99726e-08 2.58702e-07 7.51663e-09
632 5 0.001 -0.000882426 0 -0.0242547 -7.66739e-08 0 -7.92456e-09 2.8625e-07 7.58541e-09
782 6 0.001 0.00232491 0 -0.0241971 3.1263e-07 0 7.37748e-08 2.23327e-07 7.60001e-09
780 6 0.001 0.00248416 0 -0.0254591 3.25193e-07 0 5.86984e-08 1.99938e-07 7.54165e-09
781 6 0.001 0.00240913 0 -0.0248275 3.33448e-07 0 7.01465e-08 2.12109e-07 7.57199e-09
930 7 0.001 0.00595377 0 -0.0255533 -5.24876e-08 0 -1.30044e-07 1.70992e-07 6.40882e-09
932 7 0.001 0.00564165 0 -0.02432 -1.49116e-07 0 -1.58701e-07 1.71082e-07 6.40935e-09
931 7 0.001 0.00580175 0 -0.0249356 -1.00406e-07 0 -1.4465e-07 1.71514e-07 6.41018e-09
1081 8 0.001 0.00924853 0 -0.0251973 1.39948e-07 0 1.56557e-07 1.32579e-07 4.90466e-09
1082 8 0.001 0.00901806 0 -0.0246042 1.28073e-07 0 1.49685e-07 1.239e-07 4.88711e-09
1232 9 0.001 0.0123454 0 -0.0250668 9.54411e-08 0 3.77106e-08 6.84347e-08 2.87276e-09
1233 9 0.001 0.0120446 0 -0.0245057 7.52675e-08 0 2.41149e-08 5.62927e-08 2.85414e-09
1382 10 0.001 0.0166214 0 -0.0253221 3.26617e-08 0 4.7612e-08 4.07062e-08 2.15352e-09
1384 10 0.001 0.015969 0 -0.0242284 3.58747e-08 0 4.833e-08 2.00835e-08 2.12613e-09
1383 10 0.001 0.0162967 0 -0.0247744 3.49392e-08 0 4.827e-08 2.95192e-08 2.13864e-09
37 1 0.001 -0.0120166 0 -0.0240593 1.79949e-07 0 -1.10078e-07 1.40184e-06 1.90966e-08
38 1 0.001 -0.011768 0 -0.0234749 1.25084e-07 0 -8.23998e-08 1.55564e-06 1.97137e-08
39 1 0.001 -0.0115427 0 -0.0228812 5.90798e-08 0 -5.20259e-08 1.70165e-06 2.03086e-08
186 2 0.001 -0.00849373 0 -0.0239249 -3.54874e-07 0 5.57908e-08 1.47374e-06 2.51004e-08
187 2 0.001 -0.00830869 0 -0.0233178 -2.79006e-07 0 1.28735e-08 1.60967e-06 2.57253e-08
335 3 0.001 -0.00574828 0 -0.0235976 4.12275e-08 0 1.92659e-07 1.20884e-06 3.47377e-08
336 3 0.001 -0.00564217 0 -0.0229723 7.00744e-08 0 1.90616e-07 1.29272e-06 3.519e-08
483 4 0.001 -0.00362871 0 -0.0239734 2.09354e-07 0 -2.0172e-09 5.15305e-07 1.00953e-08
484 4 0.001 -0.003566 0 -0.0233407 2.17733e-07 0 3.83325e-09 5.7423e-07 1.02661e-08
485 4 0.001 -0.00351845 0 -0.0227068 2.06609e-07 0 1.24253e-08 6.32124e-07 1.04354e-08
633 5 0.001 -0.000894415 0 -0.0236188 -6.13654e-08 0 1.29619e-09 3.13386e-07 7.65344e-09
634 5 0.001 -0.000917642 0 -0.0229832 -4.02016e-08 0 1.14556e-08 3.39772e-07 7.71987e-09
783 6 0.001 0.0022313 0 -0.023568 2.57897e-07 0 7.12377e-08 2.33455e-07 7.62534e-09