ITEM: TIMESTEP
113950
ITEM: NUMBER OF ATOMS
10500
ITEM: BOX BOUNDS pp pp pp
-1.0249999999999999e+00 1.0249999999999999e+00
-2.0000000000000000e+00 2.0000000000000000e+00
-5.0000000000000003e-02 5.0000000000000003e-02
ITEM: ATOMS id type radius x y z fx fy fz c_bendingE c_stretchingE
10321 345 0.0015 -0.0605191 -1.90326 0 4.00567e-13 -1.34869e-12 0 0 1.73841e-27
6031 202 0.0015 -0.31342 -1.90111 0 -2.27044e-12 3.72168e-12 0 0 4.80591e-26
10322 345 0.0015 -0.061196 -1.90016 0 1.99474e-12 -1.14331e-11 0 0 1.50951e-25
8041 269 0.0015 0.155487 -1.90065 0 -1.30431e-13 1.28159e-12 0 0 3.12299e-27
10261 343 0.0015 0.417684 -1.90089 0 3.65684e-13 1.38877e-12 0 0 2.29009e-27
1471 50 0.0015 0.556864 -1.90052 0 1.45568e-12 2.18462e-12 0 0 6.98751e-27
10323 345 0.0015 -0.0618728 -1.89705 0 -4.59362e-12 2.44395e-11 0 0 2.73397e-25
1951 66 0.0015 0.0156385 -1.89738 0 -4.15622e-13 4.02176e-12 0 0 2.18093e-26
10262 343 0.0015 0.418405 -1.89694 0 -1.73376e-14 2.69279e-12 0 0 2.08656e-26
1472 50 0.0015 0.559091 -1.8976 0 2.37758e-12 2.58935e-12 0 0 4.51332e-26
2641 89 0.0015 -0.570912 -1.89491 0 1.27163e-12 -8.35439e-13 0 0 2.99985e-27
1473 50 0.0015 0.561317 -1.89469 0 -5.46184e-12 -7.23201e-12 0 0 4.69578e-26
2642 89 0.0015 -0.574633 -1.89206 0 -5.18334e-12 3.68525e-12 0 0 3.34967e-26
6032 202 0.0015 -0.318223 -1.89337 0 3.7589e-12 -6.21143e-12 0 0 6.93314e-26
10324 345 0.0015 -0.0625496 -1.89394 0 2.55672e-12 -1.32951e-11 0 0 1.26665e-25
1952 66 0.0015 0.0151583 -1.8926 0 1.56198e-13 -1.15488e-12 0 0 3.28632e-26
8042 269 0.0015 0.154791 -1.89391 0 5.19867e-13 -5.09217e-12 0 0 3.07344e-26
10263 343 0.0015 0.419126 -1.89298 0 -1.2065e-12 -1.0838e-11 0 1.24237e-20 7.02398e-26
3540 118 0.0015 0.637977 -1.89243 0 2.13411e-13 1.48228e-14 0 0 2.83738e-29
6061 203 0.0015 -0.387409 -1.89062 0 3.80955e-12 -5.72867e-12 0 2.48474e-20 1.94248e-26
10325 345 0.0015 -0.0632265 -1.89084 0 -5.96684e-13 3.40528e-12 0 0 5.27296e-27
10231 342 0.0015 0.215 -1.89 0 -3.59211e-12 0 0 0 2.47188e-27
10232 342 0.0015 0.21569 -1.89 0 6.33913e-12 0 0 0 3.91703e-27
10233 342 0.0015 0.216379 -1.89 0 -6.37557e-12 0 0 0 3.96713e-27
10234 342 0.0015 0.217069 -1.89 0 8.98282e-12 0 0 0 8.01442e-27
10235 342 0.0015 0.217759 -1.89 0 -1.38e-11 0 0 0 1.91572e-26
10236 342 0.0015 0.218448 -1.89 0 1.5937e-11 0 0 0 2.44163e-26
10237 342 0.0015 0.219138 -1.89 0 -1.46691e-11 0 0 0 2.06219e-26
10238 342 0.0015 0.219828 -1.89 0 1.71686e-11 0 0 0 2.89922e-26
10239 342 0.0015 0.220517 -1.89 0 -2.11166e-11 0 0 0 4.28363e-26
10240 342 0.0015 0.221207 -1.89 0 2.18053e-11 0 0 0 4.55613e-26
10241 342 0.0015 0.221897 -1.89 0 -2.1226e-11 0 0 0 4.31552e-26
10242 342 0.0015 0.222586 -1.89 0 2.39781e-11 0 0 0 5.58701e-26
10243 342 0.0015 0.223276 -1.89 0 -2.7564e-11 0 0 0 7.28234e-26
10244 342 0.0015 0.223966 -1.89 0 2.73107e-11 0 0 0 7.15309e-26
10245 342 0.0015 0.224655 -1.89 0 -2.58985e-11 0 0 0 6.42642e-26
10246 342 0.0015 0.225345 -1.89 0 2.58985e-11 0 0 0 6.42642e-26
10247 342 0.0015 0.226034 -1.89 0 -2.73107e-11 0 0 0 7.15309e-26
10248 342 0.0015 0.226724 -1.89 0 2.7564e-11 0 0 0 7.28234e-26
10249 342 0.0015 0.227414 -1.89 0 -2.39781e-11 0 0 0 5.58701e-26
10250 342 0.0015 0.228103 -1.89 0 2.1226e-11 0 0 0 4.31552e-26
10251 342 0.0015 0.228793 -1.89 0 -2.18053e-11 0 0 0 4.55613e-26
10252 342 0.0015 0.229483 -1.89 0 2.11166e-11 0 0 0 4.28363e-26
10253 342 0.0015 0.230172 -1.89 0 -1.71686e-11 0 0 0 2.89922e-26
10254 342 0.0015 0.230862 -1.89 0 1.46691e-11 0 0 0 2.06219e-26
10255 342 0.0015 0.231552 -1.89 0 -1.5937e-11 0 0 0 2.44163e-26
10256 342 0.0015 0.232241 -1.89 0 1.38e-11 0 0 0 1.91572e-26
10257 342 0.0015 0.232931 -1.89 0 -8.98282e-12 0 0 0 8.01442e-27
10258 342 0.0015 0.233621 -1.89 0 6.37557e-12 0 0 0 3.96713e-27
10259 342 0.0015 0.23431 -1.89 0 -6.33913e-12 0 0 0 3.91703e-27
10260 342 0.0015 0.235 -1.89 0 3.59211e-12 0 0 0 2.47188e-27
6001 201 0.0015 0.490936 -1.89052 0 4.23615e-13 1.08442e-12 0 0 3.13745e-27
1474 50 0.0015 0.563543 -1.89178 0 1.42812e-12 2.63945e-12 0 0 8.81264e-27
3539 118 0.0015 0.640514 -1.89051 0 -1.34587e-12 7.47781e-13 0 0 2.0271e-28
2643 89 0.0015 -0.578354 -1.8892 0 5.21738e-12 -3.89105e-12 0 0 3.41291e-26
6063 203 0.0015 -0.391043 -1.8889 0 1.33071e-11 -7.06932e-12 0 4.96948e-20 7.5922e-26
6064 203 0.0015 -0.392859 -1.88804 0 4.78039e-13 -1.01953e-11 0 2.48474e-20 5.45525e-26
6062 203 0.0015 -0.389226 -1.88976 0 -1.20599e-11 1.37468e-11 0 4.96948e-20 8.56723e-26
10264 343 0.0015 0.419847 -1.88903 0 1.48811e-12 9.4893e-12 0 1.24237e-20 6.04316e-26
1475 50 0.0015 0.56577 -1.88887 0 -5.02656e-13 -1.34583e-12 0 0 1.86196e-27
3538 118 0.0015 0.643052 -1.8886 0 -2.21192e-12 -5.91687e-12 0 0 2.96235e-26
2644 89 0.0015 -0.582074 -1.88635 0 1.45948e-12 -9.74486e-13 0 5.32605e-21 1.88778e-26
6066 203 0.0015 -0.396492 -1.88631 0 -1.64344e-12 -6.60698e-12 0 4.96948e-20 6.07753e-27
6065 203 0.0015 -0.394676 -1.88717 0 -5.90401e-12 1.52494e-11 0 2.48474e-20 4.9597e-26
7981 267 0.0015 -0.194876 -1.88635 0 5.51643e-12 -8.72563e-13 0 0 2.0655e-26
10326 345 0.0015 -0.0639033 -1.88773 0 3.7728e-13 -5.43239e-12 0 1.57149e-20 1.43007e-26
1953 66 0.0015 0.0146782 -1.88782 0 5.76526e-13 -6.27762e-12 0 0 2.67076e-26
8043 269 0.0015 0.154095 -1.88717 0 -6.60227e-13 6.5969e-12 0 0 4.2359e-26
3537 118 0.0015 0.645589 -1.88668 0 6.95016e-12 8.94982e-12 0 0 5.30047e-26
6068 203 0.0015 -0.400126 -1.88459 0 2.05725e-11 -7.46647e-12 0 2.48474e-20 1.33559e-25
6067 203 0.0015 -0.398309 -1.88545 0 -8.29655e-12 2.08121e-12 0 4.96948e-20 5.66235e-26
6033 202 0.0015 -0.323025 -1.88564 0 -1.53225e-12 2.60084e-12 0 0 2.13072e-26
7983 267 0.0015 -0.199527 -1.8846 0 -2.67337e-12 1.94882e-12 0 0 3.76635e-27
7982 267 0.0015 -0.197202 -1.88548 0 -4.70038e-12 -2.70552e-13 0 0 2.15968e-26
10327 345 0.0015 -0.0645802 -1.88463 0 -4.07896e-13 8.98694e-12 0 1.57149e-20 3.59208e-26
10265 343 0.0015 0.420568 -1.88507 0 -1.83724e-12 -6.34026e-12 0 1.24237e-20 2.46046e-26
1476 50 0.0015 0.567996 -1.88596 0 -1.27404e-12 -3.82391e-13 0 0 7.87232e-27
3536 118 0.0015 0.648126 -1.88476 0 -6.07998e-12 -5.37905e-12 0 1.57149e-20 3.11304e-26
2645 89 0.0015 -0.585795 -1.88349 0 -2.86646e-12 2.0089e-12 0 5.32605e-21 1.52532e-26
6071 203 0.0015 -0.405575 -1.882 0 -7.15846e-12 -3.0438e-12 0 0 1.26861e-26
6070 203 0.0015 -0.403759 -1.88287 0 1.09956e-11 -1.08311e-11 0 0 6.65492e-26
6069 203 0.0015 -0.401942 -1.88373 0 -1.69681e-11 1.47877e-11 0 0 1.32253e-25
7985 267 0.0015 -0.204179 -1.88284 0 8.16322e-12 5.60565e-12 0 1.00459e-20 1.10379e-26
7984 267 0.0015 -0.201853 -1.88372 0 -1.76996e-12 -2.55593e-12 0 0 8.13822e-27
1954 66 0.0015 0.0141981 -1.88304 0 -2.46056e-13 2.72282e-12 0 0 1.62917e-26
6002 201 0.0015 0.493952 -1.88275 0 -6.92225e-13 -1.7326e-12 0 5.99535e-21 4.27641e-27
1477 50 0.0015 0.570222 -1.88304 0 1.63257e-12 -1.22377e-12 0 0 1.19262e-26
3535 118 0.0015 0.650663 -1.88285 0 1.09485e-11 7.18644e-12 0 1.57149e-20 9.8362e-26
2646 89 0.0015 -0.589516 -1.88064 0 -3.46408e-12 2.65152e-12 0 5.32605e-21 2.56746e-26
6073 203 0.0015 -0.409209 -1.88028 0 4.71417e-12 -1.26155e-11 0 2.48474e-20 2.74557e-26
6072 203 0.0015 -0.407392 -1.88114 0 2.665e-12 1.33501e-11 0 0 7.86533e-27
7988 267 0.0015 -0.211156 -1.8802 0 -1.00677e-11 3.63249e-13 0 1.00459e-20 3.27394e-26
7987 267 0.0015 -0.208831 -1.88108 0 7.716e-12 3.58325e-12 0 1.00459e-20 1.3194e-26
7986 267 0.0015 -0.206505 -1.88196 0 -8.00688e-12 -6.99164e-12 0 1.00459e-20 8.87892e-27
8011 268 0.0015 -0.176367 -1.88159 0 2.83128e-13 7.79269e-13 0 0 2.50724e-27
10328 345 0.0015 -0.065257 -1.88152 0 -1.29555e-12 -1.95712e-12 0 1.57149e-20 3.59929e-26
8044 269 0.0015 0.1534 -1.88043 0 5.81871e-13 -6.13701e-12 0 0 3.60556e-26
10266 343 0.0015 0.421289 -1.88111 0 2.34803e-12 6.50786e-12 0 0 2.6283e-26
1478 50 0.0015 0.572449 -1.88013 0 -5.61167e-13 3.37151e-12 0 0 5.92075e-27
3534 118 0.0015 0.653201 -1.88093 0 -1.27765e-11 -7.53889e-12 0 1.57149e-20 1.09474e-25
10292 344 0.0015 -0.465124 -1.8785 0 -7.45295e-14 6.25837e-12 0 0 2.4528e-27
10291 344 0.0015 -0.4623 -1.87941 0 -4.10854e-13 -2.20558e-12 0 0 6.62521e-29
6074 203 0.0015 -0.411025 -1.87942 0 -3.81982e-12 -2.18253e-12 0 4.96948e-20 2.62245e-26
6075 203 0.0015 -0.412842 -1.87856 0 -3.79495e-12 1.17651e-11 0 4.96948e-20 2.07829e-26
7990 267 0.0015 -0.215808 -1.87844 0 -6.6753e-12 -1.56301e-12 0 1.00459e-20 1.30656e-26
7989 267 0.0015 -0.213482 -1.87932 0 1.01469e-11 -7.19222e-13 0 1.00459e-20 3.38202e-26
10329 345 0.0015 -0.0659339 -1.87841 0 4.86574e-12 -1.48411e-11 0 0 1.36961e-25
1955 66 0.0015 0.0137179 -1.87827 0 -4.76872e-13 4.97514e-12 0 0 2.53786e-26
10201 341 0.0015 0.290108 -1.87875 0 3.80474e-13 -3.12779e-12 0 3.6872e-21 1.86829e-26
3533 118 0.0015 0.655738 -1.87902 0 1.12854e-13 -1.90087e-12 0 1.57149e-20 4.693e-26
2647 89 0.0015 -0.593237 -1.87778 0 8.68008e-12 -6.41638e-12 0 5.32605e-21 7.82631e-26
10294 344 0.0015 -0.470773 -1.87669 0 1.35299e-12 1.89727e-13 0 1.68424e-20 2.35601e-26
10293 344 0.0015 -0.467948 -1.87759 0 3.01127e-12 -6.37666e-12 0 0 1.03855e-26
6077 203 0.0015 -0.416475 -1.87683 0 -6.13799e-12 -4.64381e-12 0 0 9.30854e-27
6076 203 0.0015 -0.414658 -1.87769 0 4.00113e-12 -2.18876e-12 0 2.48474e-20 1.4383e-26
6034 202 0.0015 -0.327828 -1.87791 0 -8.99091e-13 1.37702e-12 0 0 7.88246e-27
7992 267 0.0015 -0.22046 -1.87668 0 -1.03145e-11 -5.21383e-12 0 0 2.17982e-26
7991 267 0.0015 -0.218134 -1.87756 0 7.97113e-12 3.19283e-12 0 0 1.68675e-26
10267 343 0.0015 0.42201 -1.87716 0 -8.56377e-13 9.89472e-13 0 0 2.72443e-26
1479 50 0.0015 0.574675 -1.87722 0 3.18445e-12 2.18881e-12 0 0 1.32031e-26
3532 118 0.0015 0.658275 -1.8771 0 5.98444e-12 6.07138e-12 0 1.57149e-20 3.50638e-26
2648 89 0.0015 -0.596958 -1.87493 0 -6.53105e-12 4.95627e-12 0 1.06521e-20 5.703e-26
10296 344 0.0015 -0.476421 -1.87487 0 6.08178e-13 -3.51829e-12 0 1.68424e-20 1.41906e-26
10295 344 0.0015 -0.473597 -1.87578 0 -6.88187e-12 4.69682e-12 0 1.68424e-20 2.64964e-26
6080 203 0.0015 -0.421925 -1.87425 0 7.57283e-12 -1.45295e-11 0 2.48474e-20 6.81499e-26
6079 203 0.0015 -0.420108 -1.87511 0 -6.92125e-12 9.46186e-12 0 2.48474e-20 3.90598e-26
6078 203 0.0015 -0.418291 -1.87597 0 1.2285e-11 -2.34538e-12 0 2.48474e-20 4.53865e-26
7995 267 0.0015 -0.227437 -1.87404 0 1.70081e-11 6.72702e-12 0 0 6.34227e-26
7994 267 0.0015 -0.225111 -1.87492 0 -1.37603e-11 -1.12889e-11 0 0 3.74248e-26
7993 267 0.0015 -0.222785 -1.8758 0 8.88601e-12 9.71356e-12 0 0 8.91983e-27
10330 345 0.0015 -0.0666107 -1.87531 0 -5.20621e-12 1.8106e-11 0 1.57149e-20 1.67228e-25
6003 201 0.0015 0.496967 -1.87498 0 -3.91583e-13 -1.18247e-12 0 5.99535e-21 9.90016e-27
1480 50 0.0015 0.576901 -1.87431 0 -8.68402e-13 -1.63399e-12 0 0 1.64047e-26
3531 118 0.0015 0.660812 -1.87519 0 -2.9278e-14 -3.95693e-12 0 1.57149e-20 6.9423e-27
2649 89 0.0015 -0.600679 -1.87207 0 1.01424e-12 -1.26709e-12 0 1.06521e-20 4.52806e-27
10299 344 0.0015 -0.484893 -1.87215 0 -7.82039e-12 5.55673e-12 0 0 3.53172e-26
10298 344 0.0015 -0.482069 -1.87306 0 -4.99347e-13 -4.93245e-12 0 0 1.87537e-26
10297 344 0.0015 -0.479245 -1.87396 0 5.81862e-12 2.40305e-12 0 0 9.79359e-27
6082 203 0.0015 -0.425558 -1.87252 0 5.03045e-12 2.85031e-12 0 0 3.71962e-26
6081 203 0.0015 -0.423741 -1.87338 0 -1.42162e-11 1.20311e-11 0 0 9.4161e-26
7997 267 0.0015 -0.232089 -1.87228 0 5.32935e-12 5.79839e-12 0 0 3.75679e-27
7996 267 0.0015 -0.229763 -1.87316 0 -1.03338e-11 -3.0348e-12 0 0 3.1447e-26
10331 345 0.0015 -0.0672875 -1.8722 0 2.01341e-12 -8.53656e-12 0 3.14298e-20 4.49879e-26
1956 66 0.0015 0.0132378 -1.87349 0 7.18093e-13 -7.60437e-12 0 0 3.95501e-26
8045 269 0.0015 0.152704 -1.87369 0 -7.21975e-13 7.63968e-12 0 0 5.62417e-26
10202 341 0.0015 0.289307 -1.87202 0 -8.52169e-13 6.80798e-12 0 3.6872e-21 4.45872e-26
4531 152 0.0015 0.366216 -1.8733 0 3.62358e-13 -2.29805e-12 0 0 1.31151e-26
10268 343 0.0015 0.422731 -1.8732 0 -1.74426e-12 -1.25845e-11 0 0 1.03605e-25
3530 118 0.0015 0.66335 -1.87327 0 -6.31506e-12 1.55808e-12 0 1.57149e-20 1.24064e-26
10301 344 0.0015 -0.490541 -1.87033 0 1.00862e-12 -4.29974e-12 0 0 2.23166e-27
10300 344 0.0015 -0.487717 -1.87124 0 4.04594e-12 -1.99382e-13 0 0 2.46754e-26
6084 203 0.0015 -0.429191 -1.8708 0 6.34781e-12 1.24326e-11 0 0 2.12453e-28
6083 203 0.0015 -0.427374 -1.87166 0 -1.18202e-12 -1.19344e-11 0 0 8.36008e-27
6035 202 0.0015 -0.332631 -1.87017 0 5.18908e-13 -7.62418e-13 0 0 9.63257e-27
7999 267 0.0015 -0.23674 -1.87052 0 3.41841e-14 7.03017e-12 0 0 2.67216e-27
7998 267 0.0015 -0.234415 -1.8714 0 -3.64908e-12 -9.25384e-12 0 0 5.78466e-28
1481 50 0.0015 0.579128 -1.8714 0 -1.00401e-12 5.85436e-13 0 6.81478e-21 5.9123e-27
3529 118 0.0015 0.665887 -1.87136 0 8.70466e-12 2.36473e-12 0 1.57149e-20 3.13159e-26
2650 89 0.0015 -0.6044 -1.86922 0 3.58077e-13 7.02333e-13 0 5.32605e-21 3.15568e-28
10303 344 0.0015 -0.49619 -1.86852 0 -8.97771e-12 1.4967e-12 0 0 3.53599e-26
10302 344 0.0015 -0.493366 -1.86943 0 3.61701e-12 3.01561e-12 0 0 1.02655e-26
6087 203 0.0015 -0.434641 -1.86821 0 -1.47566e-12 -6.39816e-12 0 4.96948e-20 2.83979e-27
6085 203 0.0015 -0.431008 -1.86994 0 -4.72062e-12 -1.28278e-11 0 2.48474e-20 2.04906e-27
6086 203 0.0015 -0.432824 -1.86908 0 5.31245e-13 1.03524e-11 0 2.48474e-20 4.40104e-27
8001 267 0.0015 -0.241392 -1.86876 0 4.82147e-12 2.36118e-12 0 1.00459e-20 4.77794e-27
8000 267 0.0015 -0.239066 -1.86964 0 -1.29597e-12 -2.73588e-12 0 1.00459e-20 5.56634e-27
8012 268 0.0015 -0.171924 -1.86923 0 -4.84245e-13 -1.3247e-12 0 0 3.73977e-27
10332 345 0.0015 -0.0679644 -1.86909 0 1.11035e-13 3.90918e-12 0 3.14298e-20 6.36242e-27
1957 66 0.0015 0.0127576 -1.86871 0 -2.56311e-13 2.65566e-12 0 0 1.53975e-26
10269 343 0.0015 0.423451 -1.86924 0 2.75063e-12 1.54769e-11 0 0 1.40049e-25
1482 50 0.0015 0.581354 -1.86848 0 -8.4169e-13 -4.31983e-12 0 6.81478e-21 8.15262e-27
3528 118 0.0015 0.668424 -1.86944 0 -3.94223e-12 -3.03158e-12 0 1.57149e-20 1.91279e-26
2651 89 0.0015 -0.608121 -1.86636 0 -2.07236e-12 8.58191e-13 0 0 8.88551e-27
10305 344 0.0015 -0.501838 -1.8667 0 -4.43865e-12 7.43662e-12 0 0 3.46976e-26
10304 344 0.0015 -0.499014 -1.86761 0 1.05414e-11 -6.68065e-12 0 0 6.04499e-26
6089 203 0.0015 -0.438274 -1.86649 0 6.17557e-12 -8.77784e-12 0 2.48474e-20 2.45044e-26
6088 203 0.0015 -0.436457 -1.86735 0 -3.1822e-13 7.73098e-12 0 2.48474e-20 1.07509e-26
8004 267 0.0015 -0.248369 -1.86612 0 -4.73083e-12 5.58643e-12 0 1.00459e-20 1.52486e-26
8003 267 0.0015 -0.246044 -1.867 0 1.3074e-12 -3.81555e-12 0 0 1.31599e-26
8002 267 0.0015 -0.243718 -1.86788 0 -8.33951e-13 -2.12215e-12 0 1.00459e-20 3.25088e-27
8046 269 0.0015 0.152008 -1.86695 0 3.56236e-13 -3.97283e-12 0 0 3.51265e-26
6004 201 0.0015 0.499982 -1.86721 0 6.15277e-13 1.94255e-12 0 5.99535e-21 8.77916e-27
3527 118 0.0015 0.670962 -1.86752 0 -4.36286e-12 -4.77555e-13 0 0 1.4944e-26
10307 344 0.0015 -0.507486 -1.86489 0 -2.60328e-12 2.74729e-12 0 0 2.06761e-26
10306 344 0.0015 -0.504662 -1.8658 0 -2.71807e-12 -3.69217e-12 0 0 1.78039e-27
6090 203 0.0015 -0.440091 -1.86563 0 -3.86869e-12 3.54563e-12 0 0 1.40475e-26
8006 267 0.0015 -0.253021 -1.86436 0 -1.42036e-12 6.01834e-13 0 2.00918e-20 8.2057e-28
8005 267 0.0015 -0.250695 -1.86524 0 3.04865e-12 -6.39806e-13 0 2.00918e-20 4.09113e-27
10333 345 0.0015 -0.0686412 -1.86599 0 2.49365e-13 -6.31581e-12 0 1.57149e-20 1.96563e-26
10203 341 0.0015 0.288506 -1.8653 0 1.15099e-12 -9.14284e-12 0 3.6872e-21 8.29276e-26
4532 152 0.0015 0.364868 -1.86469 0 -4.37658e-13 2.72301e-12 0 0 1.35663e-26
10270 343 0.0015 0.424172 -1.86529 0 -3.28919e-12 -1.75771e-11 0 0 1.87866e-25
1483 50 0.0015 0.58358 -1.86557 0 -3.42355e-13 4.06193e-12 0 6.81478e-21 5.95477e-27
3526 118 0.0015 0.673499 -1.86561 0 1.01097e-11 3.74371e-12 0 0 4.90552e-26
2652 89 0.0015 -0.611842 -1.86351 0 3.65787e-12 -3.31623e-12 0 0 1.58098e-26
10310 344 0.0015 -0.515959 -1.86217 0 7.30318e-12 -1.60849e-12 0 1.68424e-20 2.55345e-26
10309 344 0.0015 -0.513134 -1.86307 0 -7.93217e-12 2.54661e-12 0 1.68424e-20 2.97474e-26
10308 344 0.0015 -0.51031 -1.86398 0 7.48979e-12 -3.22619e-12 0 1.68424e-20 2.80266e-26
6036 202 0.0015 -0.337434 -1.86244 0 1.0095e-12 -1.72916e-12 0 0 5.19582e-27
8008 267 0.0015 -0.257673 -1.8626 0 1.02175e-11 3.64077e-12 0 0 2.43093e-26
8007 267 0.0015 -0.255347 -1.86348 0 -5.55733e-12 -3.18492e-12 0 1.00459e-20 1.66198e-26
10334 345 0.0015 -0.0693181 -1.86288 0 -4.98223e-13 5.83423e-12 0 0 1.84015e-26
1958 66 0.0015 0.0122775 -1.86393 0 -2.62062e-13 2.87492e-12 0 0 7.18051e-27
1484 50 0.0015 0.585807 -1.86266 0 6.45822e-13 -3.0754e-12 0 0 2.34933e-27
3525 118 0.0015 0.676036 -1.86369 0 -1.01097e-11 -3.74371e-12 0 0 4.90552e-26
2653 89 0.0015 -0.615563 -1.86065 0 -2.26669e-12 3.11229e-12 0 5.32605e-21 9.52357e-27
10312 344 0.0015 -0.521607 -1.86035 0 -5.24486e-12 -3.19159e-13 0 0 1.36971e-26
10311 344 0.0015 -0.518783 -1.86126 0 1.54554e-12 -1.84274e-13 0 0 1.79103e-26
8010 267 0.0015 -0.262324 -1.86085 0 1.47283e-12 8.44986e-13 0 0 8.03685e-28
8009 267 0.0015 -0.259998 -1.86172 0 -5.84949e-12 -2.73557e-12 0 0 8.90563e-27
8047 269 0.0015 0.151313 -1.86021 0 1.39374e-13 -9.74285e-13 0 3.6872e-21 1.02091e-27
10271 343 0.0015 0.424893 -1.86133 0 3.72667e-12 2.0393e-11 0 0 2.4087e-25
3524 118 0.0015 0.678573 -1.86178 0 4.36286e-12 4.77555e-13 0 0 1.4944e-26
10314 344 0.0015 -0.527255 -1.85854 0 -7.555e-12 1.191e-12 0 0 2.50544e-26
10313 344 0.0015 -0.524431 -1.85944 0 4.21241e-12 8.79827e-13 0 0 7.24059e-27
10335 345 0.0015 -0.0699949 -1.85978 0 -1.75975e-12 6.11736e-12 0 0 5.63091e-26
1959 66 0.0015 0.0117974 -1.85915 0 1.23686e-13 -1.44905e-12 0 0 7.38118e-27
4771 160 0.0015 0.0785585 -1.85825 0 5.12814e-14 -1.86578e-12 0 2.71488e-21 8.90403e-27
10204 341 0.0015 0.287705 -1.85857 0 -1.12928e-12 9.34396e-12 0 0 8.57538e-26
6005 201 0.0015 0.502997 -1.85945 0 2.98622e-13 3.28842e-13 0 0 6.02841e-28
1485 50 0.0015 0.588033 -1.85975 0 4.33799e-13 2.34932e-12 0 0 2.4691e-27
3523 118 0.0015 0.681111 -1.85986 0 3.94223e-12 3.03158e-12 0 1.57149e-20 1.91279e-26
2654 89 0.0015 -0.619284 -1.8578 0 7.51356e-13 -1.47435e-12 0 1.06521e-20 2.40437e-27
10316 344 0.0015 -0.532903 -1.85672 0 -8.34748e-12 3.47778e-12 0 0 4.0561e-26
10315 344 0.0015 -0.530079 -1.85763 0 6.86171e-12 -2.08218e-12 0 0 2.33801e-26
8013 268 0.0015 -0.167482 -1.85688 0 4.22572e-13 1.15279e-12 0 1.90242e-21 2.75685e-27
10336 345 0.0015 -0.0706718 -1.85667 0 2.80179e-12 -1.28104e-11 0 0 7.88564e-26
4533 152 0.0015 0.36352 -1.85607 0 -1.0056e-13 7.34583e-13 0 0 3.78415e-27
10272 343 0.0015 0.425614 -1.85738 0 -2.67803e-12 -1.47106e-11 0 0 1.36447e-25
1486 50 0.0015 0.59026 -1.85684 0 -4.33799e-13 -2.34932e-12 0 0 2.4691e-27
3522 118 0.0015 0.683648 -1.85795 0 -8.70466e-12 -2.36473e-12 0 1.57149e-20 3.13159e-26
3521 118 0.0015 0.686185 -1.85603 0 6.31506e-12 -1.55808e-12 0 1.57149e-20 1.24064e-26
2655 89 0.0015 -0.623004 -1.85494 0 -6.81163e-13 4.44336e-13 0 1.06521e-20 6.08297e-28
10318 344 0.0015 -0.538552 -1.85491 0 -7.0398e-12 2.20835e-12 0 0 4.94181e-26
10317 344 0.0015 -0.535727 -1.85581 0 1.32656e-11 -5.52019e-12 0 0 8.50119e-26
6037 202 0.0015 -0.342237 -1.85471 0 2.83517e-13 -3.53259e-13 0 0 9.97417e-27
1960 66 0.0015 0.0113172 -1.85437 0 -1.13233e-14 2.852e-13 0 0 2.26976e-27
3520 118 0.0015 0.688722 -1.85412 0 2.9278e-14 3.95693e-12 0 1.57149e-20 6.9423e-27
2656 89 0.0015 -0.626725 -1.85209 0 3.16507e-12 -2.13401e-12 0 5.32605e-21 1.34424e-26
10320 344 0.0015 -0.5442 -1.85309 0 3.91408e-12 -2.16637e-12 0 0 1.58737e-26
10319 344 0.0015 -0.541376 -1.854 0 -4.05225e-12 2.90729e-12 0 0 1.59794e-26
10337 345 0.0015 -0.0713486 -1.85356 0 -1.17047e-12 6.7955e-12 0 0 2.68328e-26
8048 269 0.0015 0.150617 -1.85348 0 -2.08843e-13 1.74913e-12 0 3.6872e-21 3.09682e-27
10273 343 0.0015 0.426335 -1.85342 0 1.10915e-12 5.82534e-12 0 0 3.07968e-26
1487 50 0.0015 0.592486 -1.85392 0 -6.45822e-13 3.0754e-12 0 0 2.34933e-27
3519 118 0.0015 0.69126 -1.8522 0 -5.98444e-12 -6.07138e-12 0 1.57149e-20 3.50638e-26
10338 345 0.0015 -0.0720254 -1.85046 0 1.67258e-12 -8.99709e-12 0 0 5.2348e-26
10205 341 0.0015 0.286904 -1.85184 0 5.01655e-13 -4.6134e-12 0 0 2.97418e-26
6006 201 0.0015 0.506013 -1.85168 0 -1.2498e-12 -2.97805e-12 0 0 1.77838e-26
1488 50 0.0015 0.594712 -1.85101 0 3.42355e-13 -4.06193e-12 0 6.81478e-21 5.95477e-27
3518 118 0.0015 0.693797 -1.85028 0 -1.12854e-13 1.90087e-12 0 1.57149e-20 4.693e-26
2657 89 0.0015 -0.630446 -1.84923 0 -5.52096e-12 4.6743e-12 0 5.32605e-21 3.45877e-26
1961 66 0.0015 0.0108371 -1.84959 0 7.90612e-13 -8.08777e-12 0 0 6.8217e-26
4772 160 0.0015 0.0782973 -1.84905 0 -7.21916e-14 2.66607e-12 0 2.71488e-21 1.0542e-26
10274 343 0.0015 0.427056 -1.84946 0 1.2528e-12 6.24824e-12 0 0 5.69324e-26
1489 50 0.0015 0.596939 -1.8481 0 8.4169e-13 4.31983e-12 0 6.81478e-21 8.15262e-27
3517 118 0.0015 0.696334 -1.84837 0 1.27765e-11 7.53889e-12 0 1.57149e-20 1.09474e-25
2658 89 0.0015 -0.634167 -1.84638 0 2.39932e-12 -2.78662e-12 0 1.06521e-20 2.20321e-26
6038 202 0.0015 -0.34704 -1.84697 0 -1.63151e-12 2.58644e-12 0 0 1.18576e-26
10339 345 0.0015 -0.0727023 -1.84735 0 -2.38716e-12 1.20382e-11 0 1.57149e-20 6.99021e-26
8049 269 0.0015 0.149922 -1.84674 0 2.84794e-13 -2.38685e-12 0 3.6872e-21 5.47608e-27
6541 219 0.0015 0.213251 -1.84656 0 1.30459e-13 -1.95274e-12 0 0 7.56224e-27
4534 152 0.0015 0.362172 -1.84745 0 4.63732e-13 -2.91475e-12 0 0 1.09986e-26
3516 118 0.0015 0.698871 -1.84645 0 -1.09485e-11 -7.18644e-12 0 1.57149e-20 9.8362e-26
8014 268 0.0015 -0.163039 -1.84452 0 -1.64385e-13 -4.55405e-13 0 1.90242e-21 1.6204e-27
10340 345 0.0015 -0.0733791 -1.84424 0 1.05251e-12 -6.73987e-12 0 3.14298e-20 2.36405e-26
1962 66 0.0015 0.010357 -1.84481 0 -1.02937e-12 1.03584e-11 0 5.20104e-21 8.15902e-26
10206 341 0.0015 0.286103 -1.84511 0 -2.91441e-13 3.11077e-12 0 0 1.17639e-26
10275 343 0.0015 0.427777 -1.84551 0 -3.2556e-12 -1.55214e-11 0 0 1.41898e-25
1490 50 0.0015 0.599165 -1.84519 0 1.00401e-12 -5.85436e-13 0 6.81478e-21 5.9123e-27
3515 118 0.0015 0.701409 -1.84454 0 6.07998e-12 5.37905e-12 0 1.57149e-20 3.11304e-26
2659 89 0.0015 -0.637888 -1.84352 0 2.07945e-12 -7.0895e-13 0 1.59781e-20 3.62972e-27
6007 201 0.0015 0.509028 -1.84391 0 3.79426e-12 9.90072e-12 0 0 1.60821e-25
1491 50 0.0015 0.601391 -1.84228 0 8.68402e-13 1.63399e-12 0 0 1.64047e-26
3514 118 0.0015 0.703946 -1.84262 0 -6.95016e-12 -8.94982e-12 0 0 5.30047e-26
2660 89 0.0015 -0.641609 -1.84066 0 5.52808e-13 -1.3334e-12 0 1.06521e-20 1.38904e-26
10341 345 0.0015 -0.074056 -1.84114 0 2.62473e-13 2.56456e-13 0 3.14298e-20 6.86013e-27
1963 66 0.0015 0.00987681 -1.84004 0 3.36517e-13 -3.49669e-12 0 5.20104e-21 1.48958e-26
10276 343 0.0015 0.428498 -1.84155 0 3.2556e-12 1.55214e-11 0 0 1.41898e-25
3513 118 0.0015 0.706483 -1.84071 0 2.21192e-12 5.91687e-12 0 0 2.96235e-26
6039 202 0.0015 -0.351842 -1.83924 0 1.9708e-12 -3.21533e-12 0 0 1.89556e-26
10342 345 0.0015 -0.0747328 -1.83803 0 -1.45979e-12 7.98479e-12 0 1.57149e-20 3.74926e-26
4773 160 0.0015 0.0780361 -1.83985 0 -1.18246e-14 3.69366e-13 0 2.71488e-21 5.13743e-27
8050 269 0.0015 0.149226 -1.84 0 2.44623e-15 -7.85125e-13 0 0 1.14019e-26
6542 219 0.0015 0.21269 -1.83947 0 -5.56457e-14 1.67645e-12 0 0 7.71854e-27
10207 341 0.0015 0.285302 -1.83839 0 2.6191e-13 -2.81897e-12 0 0 1.11166e-26
4535 152 0.0015 0.360823 -1.83883 0 -2.6236e-13 1.36013e-12 0 0 8.04234e-27
1492 50 0.0015 0.603618 -1.83936 0 -3.18445e-12 -2.18881e-12 0 0 1.32031e-26
3512 118 0.0015 0.70902 -1.83879 0 1.34587e-12 -7.47781e-13 0 0 2.0271e-28
2661 89 0.0015 -0.64533 -1.83781 0 -2.0621e-12 2.38211e-12 0 5.32605e-21 1.06396e-26
10277 343 0.0015 0.429219 -1.8376 0 -1.2528e-12 -6.24824e-12 0 0 5.69324e-26
6008 201 0.0015 0.512043 -1.83614 0 -5.40947e-12 -1.43154e-11 0 0 2.71264e-25
1493 50 0.0015 0.605844 -1.83645 0 5.61167e-13 -3.37151e-12 0 0 5.92075e-27
3511 118 0.0015 0.711558 -1.83688 0 -2.13411e-13 -1.48228e-14 0 0 2.83738e-29
2662 89 0.0015 -0.649051 -1.83495 0 -2.18786e-12 1.23587e-12 0 5.32605e-21 9.75848e-27
10343 345 0.0015 -0.0754097 -1.83493 0 1.46261e-12 -1.07e-11 0 0 5.24803e-26
1964 66 0.0015 0.00939668 -1.83526 0 -1.75817e-13 2.12533e-12 0 5.20104e-21 5.14691e-27
2663 89 0.0015 -0.652772 -1.8321 0 2.33308e-12 -1.55023e-12 0 5.32605e-21 9.69054e-27
10171 340 0.0015 -0.234195 -1.83312 0 -1.57852e-12 2.28527e-12 0 0 1.67504e-26
8015 268 0.0015 -0.158597 -1.83216 0 4.9037e-13 1.3935e-12 0 3.80484e-21 9.90051e-27
8051 269 0.0015 0.14853 -1.83326 0 -1.30014e-13 2.30299e-12 0 0 8.2835e-27
6543 219 0.0015 0.212128 -1.83239 0 -1.46007e-13 8.4852e-13 0 0 8.11599e-28
10278 343 0.0015 0.429939 -1.83364 0 -1.10915e-12 -5.82534e-12 0 0 3.07968e-26
1494 50 0.0015 0.60807 -1.83354 0 -1.63257e-12 1.22377e-12 0 0 1.19262e-26
6040 202 0.0015 -0.356645 -1.83151 0 -1.90042e-12 3.17385e-12 0 0 1.84393e-26
10344 345 0.0015 -0.0760865 -1.83182 0 -1.99882e-12 1.32907e-11 0 0 8.78236e-26
1965 66 0.0015 0.00891654 -1.83048 0 2.72446e-13 -2.88288e-12 0 0 6.28301e-27
4774 160 0.0015 0.0777749 -1.83066 0 5.70733e-15 -2.58715e-13 0 0 5.62223e-27
10208 341 0.0015 0.284501 -1.83166 0 7.68869e-15 2.80697e-13 0 0 4.13418e-28
4536 152 0.0015 0.359475 -1.83021 0 2.47148e-14 2.65991e-13 0 0 4.21047e-28
1495 50 0.0015 0.610297 -1.83063 0 1.27404e-12 3.82391e-13 0 0 7.87232e-27
2664 89 0.0015 -0.656493 -1.82924 0 1.75478e-12 -1.43721e-12 0 5.32605e-21 7.1112e-27
10345 345 0.0015 -0.0767633 -1.82871 0 3.83558e-12 -1.86351e-11 0 0 1.60501e-25
10279 343 0.0015 0.43066 -1.82968 0 2.67803e-12 1.47106e-11 0 0 1.36447e-25
6009 201 0.0015 0.515058 -1.82837 0 3.15663e-12 8.59288e-12 0 0 1.34546e-25
2665 89 0.0015 -0.660213 -1.82639 0 -4.15255e-12 3.08056e-12 0 0 1.75722e-26
10172 340 0.0015 -0.238704 -1.82673 0 3.06479e-12 -4.42885e-12 0 0 3.15249e-26
8052 269 0.0015 0.147835 -1.82652 0 -4.60813e-13 3.42766e-12 0 0 2.54953e-26
1496 50 0.0015 0.612523 -1.82772 0 5.02656e-13 1.34583e-12 0 0 1.86196e-27
10346 345 0.0015 -0.0774402 -1.82561 0 -3.48886e-12 1.30063e-11 0 0 1.00451e-25
1966 66 0.0015 0.0084364 -1.8257 0 8.26132e-15 -7.02901e-13 0 5.20104e-21 4.76409e-27
6544 219 0.0015 0.211567 -1.8253 0 6.00595e-14 -7.15871e-13 0 0 6.95299e-28
10209 341 0.0015 0.2837 -1.82493 0 -4.08544e-14 1.14303e-13 0 0 5.29811e-29
10280 343 0.0015 0.431381 -1.82573 0 -3.72667e-12 -2.0393e-11 0 0 2.4087e-25
1497 50 0.0015 0.614749 -1.8248 0 -1.42812e-12 -2.63945e-12 0 0 8.81264e-27
2666 89 0.0015 -0.663934 -1.82353 0 4.36297e-12 -3.14126e-12 0 0 1.8867e-26
6041 202 0.0015 -0.361448 -1.82377 0 5.22672e-13 -9.6661e-13 0 0 4.97279e-27
10347 345 0.0015 -0.078117 -1.8225 0 1.19924e-12 8.31605e-13 0 0 2.29241e-26
2667 89 0.0015 -0.667655 -1.82068 0 -2.76151e-12 1.81951e-12 0 0 9.15106e-27
10173 340 0.0015 -0.243212 -1.82034 0 -2.80602e-12 3.94149e-12 0 0 2.55728e-26
1967 66 0.0015 0.00795626 -1.82092 0 -1.10462e-13 2.39164e-12 0 5.20104e-21 4.33924e-27
4775 160 0.0015 0.0775136 -1.82146 0 1.00015e-13 -3.45509e-12 0 0 1.86799e-26
4537 152 0.0015 0.358127 -1.82159 0 -2.59823e-13 1.5194e-12 0 0 4.83456e-27
10281 343 0.0015 0.432102 -1.82177 0 3.28919e-12 1.75771e-11 0 0 1.87866e-25
6010 201 0.0015 0.518074 -1.8206 0 -8.03866e-13 -2.47326e-12 0 0 8.65419e-27
1498 50 0.0015 0.616976 -1.82189 0 5.46184e-12 7.23201e-12 0 0 4.69578e-26
8016 268 0.0015 -0.154154 -1.81981 0 -9.41195e-13 -2.65567e-12 0 1.90242e-21 1.48655e-26
10348 345 0.0015 -0.0787939 -1.81939 0 -1.53882e-12 -1.07199e-12 0 0 2.19962e-26
8053 269 0.0015 0.147139 -1.81978 0 6.22405e-13 -5.18956e-12 0 0 2.99377e-26
6545 219 0.0015 0.211005 -1.81821 0 -1.64056e-14 7.98654e-13 0 0 8.8752e-28
10210 341 0.0015 0.282899 -1.8182 0 2.17512e-13 -1.58994e-12 0 0 5.11572e-27
1499 50 0.0015 0.619202 -1.81898 0 -2.37758e-12 -2.58935e-12 0 0 4.51332e-26
2668 89 0.0015 -0.671376 -1.81782 0 1.18001e-12 -2.72942e-13 0 0 9.04417e-28
6042 202 0.0015 -0.366251 -1.81604 0 -6.47708e-13 1.08376e-12 0 0 6.19255e-27
10349 345 0.0015 -0.0794707 -1.81629 0 2.86619e-12 -7.08466e-12 0 0 2.57218e-26
1968 66 0.0015 0.00747613 -1.81614 0 -3.41528e-13 2.17762e-12 0 1.04021e-20 1.2378e-26
10282 343 0.0015 0.432823 -1.81781 0 -2.75063e-12 -1.54769e-11 0 0 1.40049e-25
1500 50 0.0015 0.621428 -1.81607 0 -1.45568e-12 -2.18462e-12 0 0 6.98751e-27
2669 89 0.0015 -0.675097 -1.81497 0 -6.26406e-14 -7.21938e-13 0 0 8.52972e-28
5941 199 0.0015 0.740778 -1.81551 0 -9.25345e-14 -2.44585e-13 0 2.60052e-21 1.79771e-28
2670 89 0.0015 -0.678818 -1.81211 0 -4.24839e-13 6.50131e-13 0 0 6.99669e-28
10174 340 0.0015 -0.24772 -1.81396 0 2.58788e-12 -3.51638e-12 0 6.39056e-21 2.06992e-26
10350 345 0.0015 -0.0801475 -1.81318 0 -1.31998e-12 4.19694e-12 0 0 1.69553e-26
4776 160 0.0015 0.0772524 -1.81226 0 -1.80965e-13 6.3426e-12 0 2.71488e-21 5.34636e-26
8054 269 0.0015 0.146443 -1.81304 0 -1.32559e-13 8.0136e-13 0 0 5.56471e-27
4538 152 0.0015 0.356779 -1.81297 0 3.45424e-13 -2.34417e-12 0 5.72705e-21 7.03926e-27
10283 343 0.0015 0.433544 -1.81386 0 1.74426e-12 1.25845e-11 0 0 1.03605e-25
6011 201 0.0015 0.521089 -1.81283 0 1.02028e-12 2.86115e-12 0 0 1.26194e-26
1969 66 0.0015 0.00699599 -1.81136 0 6.86647e-13 -6.19044e-12 0 5.20104e-21 2.5945e-26
6546 219 0.0015 0.210443 -1.81113 0 1.58283e-13 -2.36726e-12 0 0 6.67056e-27
10211 341 0.0015 0.282098 -1.81148 0 -6.23426e-13 5.06688e-12 0 0 2.76006e-26
6043 202 0.0015 -0.371054 -1.8083 0 1.95582e-12 -3.1562e-12 0 0 1.79388e-26
10284 343 0.0015 0.434265 -1.8099 0 8.56377e-13 -9.89472e-13 0 0 2.72443e-26
10175 340 0.0015 -0.252228 -1.80757 0 -1.49278e-12 1.9828e-12 0 6.39056e-21 1.01602e-26
8017 268 0.0015 -0.149712 -1.80745 0 -3.38607e-13 -9.30017e-13 0 1.90242e-21 2.21998e-26
1970 66 0.0015 0.00651585 -1.80658 0 -2.6715e-13 2.63184e-12 0 2.08041e-20 1.48505e-26
8055 269 0.0015 0.145748 -1.8063 0 -3.58927e-14 5.43507e-13 0 0 1.10615e-27
5942 199 0.0015 0.743061 -1.80618 0 2.55453e-13 6.57177e-13 0 2.60052e-21 6.95146e-28
6547 219 0.0015 0.209882 -1.80404 0 -3.23226e-13 4.15941e-12 0 0 1.77217e-26
10212 341 0.0015 0.281297 -1.80475 0 9.71217e-13 -7.84731e-12 0 0 5.97582e-26
4539 152 0.0015 0.35543 -1.80435 0 -5.70833e-13 3.68363e-12 0 1.14541e-20 2.07642e-26
10285 343 0.0015 0.434986 -1.80595 0 -2.34803e-12 -6.50786e-12 0 0 2.6283e-26
6012 201 0.0015 0.524104 -1.80507 0 -9.89293e-13 -2.63663e-12 0 0 1.18443e-26