ITEM: TIMESTEP
104060
ITEM: NUMBER OF ATOMS
10500
ITEM: BOX BOUNDS pp pp pp
-1.0249999999999999e+00 1.0249999999999999e+00
-2.0000000000000000e+00 2.0000000000000000e+00
-5.0000000000000003e-02 5.0000000000000003e-02
ITEM: ATOMS id type radius x y z fx fy fz c_bendingE c_stretchingE
10321 345 0.0015 -0.0605191 -1.90326 0 -4.20337e-13 4.27939e-12 0 0 1.61072e-26
6031 202 0.0015 -0.31342 -1.90111 0 1.29315e-13 -2.10184e-13 0 0 1.54009e-28
10322 345 0.0015 -0.061196 -1.90016 0 3.79578e-13 -7.30246e-12 0 1.57149e-20 2.37667e-26
8041 269 0.0015 0.155487 -1.90065 0 -1.57073e-13 1.56856e-12 0 0 4.67652e-27
10261 343 0.0015 0.417684 -1.90089 0 1.38877e-12 6.59799e-12 0 0 5.07453e-26
1471 50 0.0015 0.556864 -1.90052 0 6.12172e-13 -2.89335e-14 0 0 1.239e-28
10323 345 0.0015 -0.0618728 -1.89705 0 1.91783e-12 -5.59728e-12 0 3.14298e-20 7.63939e-26
1951 66 0.0015 0.0156385 -1.89738 0 5.48776e-14 -3.55488e-13 0 0 1.72133e-28
10262 343 0.0015 0.418405 -1.89694 0 -2.53315e-12 -1.10023e-11 0 0 7.37505e-26
1472 50 0.0015 0.559091 -1.8976 0 -3.21036e-12 -2.17325e-12 0 0 1.1398e-26
2641 89 0.0015 -0.570912 -1.89491 0 2.28298e-12 -1.46843e-12 0 0 9.53372e-27
1473 50 0.0015 0.561317 -1.89469 0 3.93153e-12 3.25148e-12 0 0 1.40241e-26
2642 89 0.0015 -0.574633 -1.89206 0 -8.11521e-12 5.15175e-12 0 0 7.10098e-26
6032 202 0.0015 -0.318223 -1.89337 0 3.9737e-13 -6.27352e-13 0 0 2.6293e-27
10324 345 0.0015 -0.0625496 -1.89394 0 -2.70382e-12 1.34085e-11 0 4.71447e-20 8.9545e-26
1952 66 0.0015 0.0151583 -1.8926 0 -3.80446e-13 3.34133e-12 0 5.20104e-21 1.22069e-26
8042 269 0.0015 0.154791 -1.89391 0 1.15993e-13 -1.26908e-12 0 0 4.8483e-27
10263 343 0.0015 0.419126 -1.89298 0 2.46121e-12 1.06875e-11 0 0 6.90087e-26
3540 118 0.0015 0.637977 -1.89243 0 -4.23111e-12 -3.41428e-12 0 0 2.60768e-26
6061 203 0.0015 -0.387409 -1.89062 0 -3.08403e-12 -3.18999e-12 0 0 1.12465e-27
10325 345 0.0015 -0.0632265 -1.89084 0 -1.06111e-13 -5.99489e-13 0 4.71447e-20 3.70729e-26
10231 342 0.0015 0.215 -1.89 0 -1.74484e-12 0 0 0 5.83228e-28
10232 342 0.0015 0.21569 -1.89 0 5.83203e-12 0 0 0 3.78275e-27
10233 342 0.0015 0.216379 -1.89 0 -8.94726e-12 0 0 0 7.72406e-27
10234 342 0.0015 0.217069 -1.89 0 7.28065e-12 0 0 0 5.64699e-27
10235 342 0.0015 0.217759 -1.89 0 -2.78902e-12 0 0 0 1.14846e-27
10236 342 0.0015 0.218448 -1.89 0 1.88372e-12 0 0 0 4.65736e-28
10237 342 0.0015 0.219138 -1.89 0 -3.83943e-12 0 0 0 1.47473e-27
10238 342 0.0015 0.219828 -1.89 0 5.46915e-12 0 0 0 2.92984e-27
10239 342 0.0015 0.220517 -1.89 0 -3.00635e-12 0 0 0 1.89852e-27
10240 342 0.0015 0.221207 -1.89 0 2.89769e-13 0 0 0 3.88459e-29
10241 342 0.0015 0.221897 -1.89 0 -4.23808e-12 0 0 0 2.8152e-27
10242 342 0.0015 0.222586 -1.89 0 7.35265e-12 0 0 0 5.18539e-27
10243 342 0.0015 0.223276 -1.89 0 -4.41897e-12 0 0 0 2.5522e-27
10244 342 0.0015 0.223966 -1.89 0 1.3764e-12 0 0 0 1.94909e-28
10245 342 0.0015 0.224655 -1.89 0 -2.28148e-12 0 0 0 6.55753e-28
10246 342 0.0015 0.225345 -1.89 0 2.28148e-12 0 0 0 6.55753e-28
10247 342 0.0015 0.226034 -1.89 0 -1.3764e-12 0 0 0 1.94909e-28
10248 342 0.0015 0.226724 -1.89 0 4.41897e-12 0 0 0 2.5522e-27
10249 342 0.0015 0.227414 -1.89 0 -7.35265e-12 0 0 0 5.18539e-27
10250 342 0.0015 0.228103 -1.89 0 4.23808e-12 0 0 0 2.8152e-27
10251 342 0.0015 0.228793 -1.89 0 -2.89769e-13 0 0 0 3.88459e-29
10252 342 0.0015 0.229483 -1.89 0 3.00635e-12 0 0 0 1.89852e-27
10253 342 0.0015 0.230172 -1.89 0 -5.46915e-12 0 0 0 2.92984e-27
10254 342 0.0015 0.230862 -1.89 0 3.83943e-12 0 0 0 1.47473e-27
10255 342 0.0015 0.231552 -1.89 0 -1.88372e-12 0 0 0 4.65736e-28
10256 342 0.0015 0.232241 -1.89 0 2.78902e-12 0 0 0 1.14846e-27
10257 342 0.0015 0.232931 -1.89 0 -7.28065e-12 0 0 0 5.64699e-27
10258 342 0.0015 0.233621 -1.89 0 8.94726e-12 0 0 0 7.72406e-27
10259 342 0.0015 0.23431 -1.89 0 -5.83203e-12 0 0 0 3.78275e-27
10260 342 0.0015 0.235 -1.89 0 1.74484e-12 0 0 0 5.83228e-28
6001 201 0.0015 0.490936 -1.89052 0 1.10768e-12 2.88109e-12 0 0 2.20539e-26
1474 50 0.0015 0.563543 -1.89178 0 -3.50831e-13 8.92445e-13 0 0 7.41003e-27
3539 118 0.0015 0.640514 -1.89051 0 5.73175e-12 4.52213e-12 0 0 2.91489e-26
2643 89 0.0015 -0.578354 -1.8892 0 9.9155e-12 -5.86061e-12 0 0 8.8625e-26
6063 203 0.0015 -0.391043 -1.8889 0 5.90377e-12 9.97394e-13 0 0 1.47254e-26
6064 203 0.0015 -0.392859 -1.88804 0 -8.30592e-12 -1.43528e-11 0 0 1.41421e-27
6062 203 0.0015 -0.389226 -1.88976 0 -1.52403e-13 8.33592e-12 0 0 1.58222e-26
10264 343 0.0015 0.419847 -1.88903 0 -2.71195e-12 -1.48717e-11 0 0 1.30543e-25
1475 50 0.0015 0.56577 -1.88887 0 -3.5023e-12 -5.97609e-12 0 0 2.74926e-26
3538 118 0.0015 0.643052 -1.8886 0 -3.55971e-12 -2.63645e-12 0 0 8.8793e-27
2644 89 0.0015 -0.582074 -1.88635 0 -7.20644e-12 4.04138e-12 0 1.59781e-20 4.41514e-26
6066 203 0.0015 -0.396492 -1.88631 0 -1.35173e-11 -1.60121e-12 0 0 3.77887e-26
6065 203 0.0015 -0.394676 -1.88717 0 1.38619e-11 1.02656e-11 0 0 2.53356e-26
7981 267 0.0015 -0.194876 -1.88635 0 -4.62416e-12 1.21205e-12 0 0 1.561e-26
10326 345 0.0015 -0.0639033 -1.88773 0 6.99063e-13 -1.40506e-12 0 4.71447e-20 2.30363e-26
1953 66 0.0015 0.0146782 -1.88782 0 1.08419e-12 -1.0418e-11 0 5.20104e-21 8.64968e-26
8043 269 0.0015 0.154095 -1.88717 0 3.02007e-14 -2.69084e-13 0 0 1.73621e-28
3537 118 0.0015 0.645589 -1.88668 0 3.22907e-12 2.66254e-12 0 0 8.11629e-27
6068 203 0.0015 -0.400126 -1.88459 0 -2.3575e-12 9.08944e-14 0 4.96948e-20 4.42436e-27
6067 203 0.0015 -0.398309 -1.88545 0 8.15488e-12 -8.47796e-13 0 2.48474e-20 1.80731e-26
6033 202 0.0015 -0.323025 -1.88564 0 -3.25246e-12 5.22123e-12 0 0 6.98594e-26
7983 267 0.0015 -0.199527 -1.8846 0 -2.72081e-12 -1.19038e-12 0 0 9.53581e-27
7982 267 0.0015 -0.197202 -1.88548 0 8.21736e-12 -1.5066e-12 0 0 2.39032e-26
10327 345 0.0015 -0.0645802 -1.88463 0 9.99585e-13 -9.66089e-12 0 3.14298e-20 4.8607e-26
10265 343 0.0015 0.420568 -1.88507 0 1.17529e-12 9.733e-12 0 0 8.58579e-26
1476 50 0.0015 0.567996 -1.88596 0 3.83433e-12 6.16498e-12 0 0 2.91508e-26
3536 118 0.0015 0.648126 -1.88476 0 -5.36699e-12 -3.0542e-12 0 0 2.02445e-26
2645 89 0.0015 -0.585795 -1.88349 0 5.42937e-12 -3.486e-12 0 1.59781e-20 2.7341e-26
6071 203 0.0015 -0.405575 -1.882 0 -4.68404e-12 -9.88873e-12 0 2.48474e-20 4.33671e-30
6070 203 0.0015 -0.403759 -1.88287 0 5.71584e-12 4.85787e-12 0 4.96948e-20 5.10611e-27
6069 203 0.0015 -0.401942 -1.88373 0 -4.16935e-12 -3.72328e-13 0 7.45423e-20 5.29487e-27
7985 267 0.0015 -0.204179 -1.88284 0 9.14797e-13 9.21736e-13 0 0 1.62205e-27
7984 267 0.0015 -0.201853 -1.88372 0 -1.99604e-12 2.23274e-12 0 0 2.43803e-27
1954 66 0.0015 0.0141981 -1.88304 0 -1.04178e-12 1.03352e-11 0 5.20104e-21 8.58125e-26
6002 201 0.0015 0.493952 -1.88275 0 -2.75287e-12 -7.16072e-12 0 0 7.07141e-26
1477 50 0.0015 0.570222 -1.88304 0 -2.34034e-12 -3.03523e-12 0 0 8.151e-27
3535 118 0.0015 0.650663 -1.88285 0 1.08613e-11 4.44498e-12 0 1.57149e-20 5.92519e-26
2646 89 0.0015 -0.589516 -1.88064 0 -8.64061e-13 3.87237e-13 0 1.59781e-20 1.50205e-26
6073 203 0.0015 -0.409209 -1.88028 0 -9.62563e-13 -4.1805e-12 0 0 4.27068e-27
6072 203 0.0015 -0.407392 -1.88114 0 6.2694e-12 1.00104e-11 0 0 1.15897e-27
7988 267 0.0015 -0.211156 -1.8802 0 3.99546e-13 -7.46789e-12 0 1.00459e-20 3.16785e-27
7987 267 0.0015 -0.208831 -1.88108 0 -2.97049e-13 4.44522e-12 0 0 1.45194e-27
7986 267 0.0015 -0.206505 -1.88196 0 -1.09417e-14 -3.61739e-12 0 0 5.88096e-28
8011 268 0.0015 -0.176367 -1.88159 0 -4.90533e-13 -1.36426e-12 0 0 7.66617e-27
10328 345 0.0015 -0.065257 -1.88152 0 -1.59998e-12 1.21809e-11 0 1.57149e-20 6.72005e-26
8044 269 0.0015 0.1534 -1.88043 0 -1.97296e-13 2.3119e-12 0 0 1.04059e-26
10266 343 0.0015 0.421289 -1.88111 0 7.98503e-13 -1.7058e-13 0 0 2.57809e-27
1478 50 0.0015 0.572449 -1.88013 0 -5.8231e-13 -1.7023e-12 0 6.81478e-21 1.12905e-26
3534 118 0.0015 0.653201 -1.88093 0 -9.79863e-12 -3.56053e-12 0 1.57149e-20 4.99436e-26
10292 344 0.0015 -0.465124 -1.8785 0 6.14451e-13 1.35533e-12 0 1.68424e-20 1.72969e-28
10291 344 0.0015 -0.4623 -1.87941 0 -8.27214e-16 -7.45858e-13 0 1.68424e-20 4.25983e-29
6074 203 0.0015 -0.411025 -1.87942 0 -4.82718e-12 -7.64246e-12 0 0 4.02342e-27
6075 203 0.0015 -0.412842 -1.87856 0 5.10299e-12 1.3253e-11 0 0 9.32907e-28
7990 267 0.0015 -0.215808 -1.87844 0 2.36986e-12 -1.20557e-11 0 1.00459e-20 1.50868e-26
7989 267 0.0015 -0.213482 -1.87932 0 -1.52168e-13 1.15887e-11 0 1.00459e-20 6.52242e-27
10329 345 0.0015 -0.0659339 -1.87841 0 2.52416e-12 -1.1919e-11 0 0 6.64842e-26
1955 66 0.0015 0.0137179 -1.87827 0 -2.31107e-13 1.86921e-12 0 0 4.20857e-26
10201 341 0.0015 0.290108 -1.87875 0 1.21743e-13 -9.46305e-13 0 0 1.71296e-27
3533 118 0.0015 0.655738 -1.87902 0 4.40216e-12 1.98782e-12 0 1.57149e-20 1.08469e-26
2647 89 0.0015 -0.593237 -1.87778 0 -1.88559e-12 1.53193e-12 0 5.32605e-21 5.05192e-27
10294 344 0.0015 -0.470773 -1.87669 0 -3.37979e-12 -1.3355e-12 0 3.36849e-20 3.53272e-27
10293 344 0.0015 -0.467948 -1.87759 0 1.33513e-12 -4.86769e-13 0 3.36849e-20 2.85312e-27
6077 203 0.0015 -0.416475 -1.87683 0 7.12381e-12 -9.44392e-12 0 0 3.09254e-26
6076 203 0.0015 -0.414658 -1.87769 0 -7.84605e-12 -2.77163e-12 0 0 1.81388e-26
6034 202 0.0015 -0.327828 -1.87791 0 4.18845e-12 -6.75603e-12 0 2.74394e-21 8.70261e-26
7992 267 0.0015 -0.22046 -1.87668 0 4.04175e-12 -6.73173e-12 0 0 1.31998e-26
7991 267 0.0015 -0.218134 -1.87756 0 -4.25114e-12 9.17134e-12 0 0 1.81129e-26
10267 343 0.0015 0.42201 -1.87716 0 -6.30665e-13 -4.08361e-13 0 0 1.59373e-27
1479 50 0.0015 0.574675 -1.87722 0 3.38459e-12 4.85037e-12 0 1.36296e-20 1.77935e-26
3532 118 0.0015 0.658275 -1.8771 0 -1.07247e-12 -2.33396e-13 0 0 2.5262e-27
2648 89 0.0015 -0.596958 -1.87493 0 -6.64489e-13 6.35832e-13 0 1.06521e-20 3.09774e-27
10296 344 0.0015 -0.476421 -1.87487 0 3.59145e-12 -6.24082e-12 0 3.36849e-20 1.30687e-26
10295 344 0.0015 -0.473597 -1.87578 0 -1.29304e-12 4.42617e-12 0 5.05273e-20 1.13499e-26
6080 203 0.0015 -0.421925 -1.87425 0 3.39914e-12 -7.20864e-12 0 2.48474e-20 1.26923e-26
6079 203 0.0015 -0.420108 -1.87511 0 -1.93132e-12 4.68241e-12 0 0 1.13268e-26
6078 203 0.0015 -0.418291 -1.87597 0 -2.68536e-12 7.13902e-12 0 0 1.30816e-26
7995 267 0.0015 -0.227437 -1.87404 0 -3.39591e-12 -1.62428e-12 0 0 2.34339e-27
7994 267 0.0015 -0.225111 -1.87492 0 4.3949e-12 6.94533e-13 0 0 5.82749e-27
7993 267 0.0015 -0.222785 -1.8758 0 -4.33825e-12 3.95645e-12 0 0 1.02994e-26
10330 345 0.0015 -0.0666107 -1.87531 0 -2.55846e-12 9.03667e-12 0 0 4.68622e-26
6003 201 0.0015 0.496967 -1.87498 0 3.05025e-12 7.86908e-12 0 0 8.30533e-26
1480 50 0.0015 0.576901 -1.87431 0 -6.34199e-14 -4.17302e-15 0 1.36296e-20 1.64296e-26
3531 118 0.0015 0.660812 -1.87519 0 -2.64767e-12 -4.20944e-12 0 0 1.48662e-26
2649 89 0.0015 -0.600679 -1.87207 0 4.00601e-12 -2.94426e-12 0 1.59781e-20 1.89027e-26
10299 344 0.0015 -0.484893 -1.87215 0 1.25689e-11 -3.66871e-12 0 1.68424e-20 7.06684e-26
10298 344 0.0015 -0.482069 -1.87306 0 -8.38724e-12 1.11658e-12 0 1.68424e-20 3.98221e-26
10297 344 0.0015 -0.479245 -1.87396 0 1.02122e-12 3.83903e-12 0 1.68424e-20 4.50786e-27
6082 203 0.0015 -0.425558 -1.87252 0 3.57106e-12 1.00596e-11 0 2.48474e-20 3.29674e-28
6081 203 0.0015 -0.423741 -1.87338 0 -2.01297e-12 -1.56976e-12 0 2.48474e-20 1.81585e-27
7997 267 0.0015 -0.232089 -1.87228 0 2.58082e-12 5.9644e-12 0 3.01377e-20 8.31036e-27
7996 267 0.0015 -0.229763 -1.87316 0 2.46307e-12 -3.836e-12 0 1.00459e-20 4.92772e-27
10331 345 0.0015 -0.0672875 -1.8722 0 2.51288e-12 -9.36149e-12 0 0 5.06537e-26
1956 66 0.0015 0.0132378 -1.87349 0 1.13076e-12 -1.07098e-11 0 0 7.82769e-26
8045 269 0.0015 0.152704 -1.87369 0 4.4891e-13 -4.98147e-12 0 0 2.36191e-26
10202 341 0.0015 0.289307 -1.87202 0 -3.61813e-14 -2.07373e-13 0 0 4.22652e-27
4531 152 0.0015 0.366216 -1.8733 0 -1.71184e-13 1.16409e-12 0 0 3.35437e-27
10268 343 0.0015 0.422731 -1.8732 0 2.95351e-14 2.86025e-13 0 0 1.11076e-27
3530 118 0.0015 0.66335 -1.87327 0 9.34468e-13 4.05436e-12 0 0 1.52311e-26
10301 344 0.0015 -0.490541 -1.87033 0 -3.02333e-12 1.29104e-12 0 3.36849e-20 4.58671e-27
10300 344 0.0015 -0.487717 -1.87124 0 -4.86943e-12 1.18472e-12 0 3.36849e-20 3.42465e-26
6084 203 0.0015 -0.429191 -1.8708 0 8.38228e-12 -4.00497e-12 0 2.48474e-20 2.41004e-26
6083 203 0.0015 -0.427374 -1.87166 0 -8.14763e-12 -7.56235e-12 0 2.48474e-20 1.21707e-26
6035 202 0.0015 -0.332631 -1.87017 0 -1.02708e-12 1.68757e-12 0 2.74394e-21 2.13073e-26
7999 267 0.0015 -0.23674 -1.87052 0 6.66779e-12 6.80404e-13 0 2.00918e-20 1.90776e-26
7998 267 0.0015 -0.234415 -1.8714 0 -8.8839e-12 -1.45754e-12 0 3.01377e-20 2.33024e-26
1481 50 0.0015 0.579128 -1.8714 0 -3.50212e-12 -4.30012e-12 0 6.81478e-21 1.56479e-26
3529 118 0.0015 0.665887 -1.87136 0 6.5465e-12 2.40801e-12 0 0 3.04178e-26
2650 89 0.0015 -0.6044 -1.86922 0 -8.34995e-12 6.03455e-12 0 2.66302e-20 7.59674e-26
10303 344 0.0015 -0.49619 -1.86852 0 1.23928e-11 6.22136e-13 0 1.68424e-20 6.51437e-26
10302 344 0.0015 -0.493366 -1.86943 0 -1.84193e-12 -1.06679e-12 0 3.36849e-20 1.26197e-26
6087 203 0.0015 -0.434641 -1.86821 0 4.10827e-12 2.44633e-12 0 0 2.27743e-27
6085 203 0.0015 -0.431008 -1.86994 0 -1.19186e-12 7.68949e-12 0 2.48474e-20 1.21236e-26
6086 203 0.0015 -0.432824 -1.86908 0 -4.16768e-12 -3.82694e-12 0 0 1.94862e-27
8001 267 0.0015 -0.241392 -1.86876 0 5.66084e-12 7.40218e-12 0 1.00459e-20 2.56486e-27
8000 267 0.0015 -0.239066 -1.86964 0 -3.86949e-12 -4.90745e-12 0 1.00459e-20 1.25182e-27
8012 268 0.0015 -0.171924 -1.86923 0 1.2583e-12 3.50358e-12 0 1.90242e-21 2.65092e-26
10332 345 0.0015 -0.0679644 -1.86909 0 -3.023e-12 1.27998e-11 0 0 7.68992e-26
1957 66 0.0015 0.0127576 -1.86871 0 -8.4986e-13 8.44381e-12 0 5.20104e-21 5.59937e-26
10269 343 0.0015 0.423451 -1.86924 0 -3.99547e-13 -4.94535e-12 0 0 1.95826e-26
1482 50 0.0015 0.581354 -1.86848 0 -3.41808e-14 -4.85488e-13 0 6.81478e-21 1.75308e-26
3528 118 0.0015 0.668424 -1.86944 0 -5.35189e-12 -3.06756e-12 0 0 2.98347e-26
2651 89 0.0015 -0.608121 -1.86636 0 8.54683e-12 -6.59604e-12 0 3.72823e-20 8.08625e-26
10305 344 0.0015 -0.501838 -1.8667 0 1.13436e-11 -4.76182e-13 0 1.68424e-20 7.42822e-26
10304 344 0.0015 -0.499014 -1.86761 0 -1.83324e-11 4.22525e-13 0 0 1.27905e-25
6089 203 0.0015 -0.438274 -1.86649 0 -8.56098e-12 2.53402e-12 0 0 2.19581e-26
6088 203 0.0015 -0.436457 -1.86735 0 2.20482e-12 -2.68037e-12 0 0 9.11698e-27
8004 267 0.0015 -0.248369 -1.86612 0 -6.73652e-12 -3.99556e-12 0 0 1.54174e-26
8003 267 0.0015 -0.246044 -1.867 0 7.19823e-13 7.49098e-12 0 0 3.18993e-27
8002 267 0.0015 -0.243718 -1.86788 0 -2.50844e-12 -8.18015e-12 0 1.00459e-20 4.92834e-27
8046 269 0.0015 0.152008 -1.86695 0 -5.04527e-13 5.33308e-12 0 0 2.70027e-26
6004 201 0.0015 0.499982 -1.86721 0 -1.57067e-12 -3.89797e-12 0 0 3.46728e-26
3527 118 0.0015 0.670962 -1.86752 0 -3.89986e-12 -4.43594e-12 0 0 3.29596e-26
10307 344 0.0015 -0.507486 -1.86489 0 4.78722e-12 4.4445e-13 0 1.68424e-20 2.22091e-26
10306 344 0.0015 -0.504662 -1.8658 0 -1.28864e-12 -1.18636e-12 0 1.68424e-20 2.49352e-27
6090 203 0.0015 -0.440091 -1.86563 0 4.8059e-12 -1.2175e-12 0 0 1.32131e-26
8006 267 0.0015 -0.253021 -1.86436 0 2.21782e-12 -4.35656e-13 0 2.00918e-20 1.78327e-27
8005 267 0.0015 -0.250695 -1.86524 0 4.25573e-12 1.68319e-12 0 1.00459e-20 1.6632e-26
10333 345 0.0015 -0.0686412 -1.86599 0 4.85992e-13 -2.32613e-13 0 0 6.05628e-26
10203 341 0.0015 0.288506 -1.8653 0 -3.37407e-13 3.9562e-12 0 0 1.74011e-26
4532 152 0.0015 0.364868 -1.86469 0 2.35704e-13 -1.64382e-12 0 0 3.92186e-27
10270 343 0.0015 0.424172 -1.86529 0 6.77167e-13 6.98673e-12 0 1.24237e-20 2.81474e-26
1483 50 0.0015 0.58358 -1.86557 0 -1.10056e-12 -8.43665e-13 0 1.36296e-20 3.03115e-26
3526 118 0.0015 0.673499 -1.86561 0 9.28385e-12 1.09149e-11 0 0 8.77758e-26
2652 89 0.0015 -0.611842 -1.86351 0 -3.19495e-12 3.08971e-12 0 4.79344e-20 2.12722e-26
10310 344 0.0015 -0.515959 -1.86217 0 6.20179e-12 -1.36516e-12 0 0 2.32488e-26
10309 344 0.0015 -0.513134 -1.86307 0 2.31187e-12 1.15736e-12 0 0 8.3709e-27
10308 344 0.0015 -0.51031 -1.86398 0 -8.42578e-12 3.23873e-13 0 0 2.90966e-26
6036 202 0.0015 -0.337434 -1.86244 0 -1.51e-12 2.40128e-12 0 2.74394e-21 1.20353e-26
8008 267 0.0015 -0.257673 -1.8626 0 -9.72691e-13 1.51565e-12 0 1.00459e-20 1.33074e-26
8007 267 0.0015 -0.255347 -1.86348 0 2.1438e-12 -2.38597e-12 0 2.00918e-20 1.02179e-26
10334 345 0.0015 -0.0693181 -1.86288 0 7.59922e-13 -7.16076e-12 0 0 3.04808e-26
1958 66 0.0015 0.0122775 -1.86393 0 5.22384e-13 -5.65107e-12 0 1.04021e-20 2.17573e-26
1484 50 0.0015 0.585807 -1.86266 0 7.71662e-12 8.19325e-12 0 1.36296e-20 6.6409e-26
3525 118 0.0015 0.676036 -1.86369 0 -9.28385e-12 -1.09149e-11 0 0 8.77758e-26
2653 89 0.0015 -0.615563 -1.86065 0 1.10286e-12 -1.79817e-12 0 3.19563e-20 3.43629e-27
10312 344 0.0015 -0.521607 -1.86035 0 1.16752e-11 -1.78165e-12 0 0 6.11157e-26
10311 344 0.0015 -0.518783 -1.86126 0 -1.31953e-11 7.06594e-13 0 0 6.96504e-26
8010 267 0.0015 -0.262324 -1.86085 0 2.19977e-12 -7.17443e-13 0 0 3.69003e-27
8009 267 0.0015 -0.259998 -1.86172 0 -4.49017e-12 1.1501e-12 0 0 7.32912e-27
8047 269 0.0015 0.151313 -1.86021 0 6.85746e-13 -6.76616e-12 0 0 4.53306e-26
10271 343 0.0015 0.424893 -1.86133 0 -7.49475e-13 -7.39599e-12 0 2.48474e-20 3.21502e-26
3524 118 0.0015 0.678573 -1.86178 0 3.89986e-12 4.43594e-12 0 0 3.29596e-26
10314 344 0.0015 -0.527255 -1.85854 0 -3.32092e-13 -4.85325e-12 0 0 6.20655e-28
10313 344 0.0015 -0.524431 -1.85944 0 -3.73157e-12 4.21938e-12 0 0 1.41488e-26
10335 345 0.0015 -0.0699949 -1.85978 0 5.10465e-13 8.29476e-13 0 0 2.43076e-27
1959 66 0.0015 0.0117974 -1.85915 0 -4.4412e-13 4.67556e-12 0 1.56031e-20 1.64633e-26
4771 160 0.0015 0.0785585 -1.85825 0 4.14951e-14 -1.43693e-12 0 0 5.28169e-27
10204 341 0.0015 0.287705 -1.85857 0 6.23138e-14 -1.56235e-12 0 3.6872e-21 1.78463e-26
6005 201 0.0015 0.502997 -1.85945 0 -2.21414e-13 -8.41954e-13 0 0 3.68298e-27
1485 50 0.0015 0.588033 -1.85975 0 -4.58667e-12 -2.41313e-12 0 6.81478e-21 5.02454e-26
3523 118 0.0015 0.681111 -1.85986 0 5.35189e-12 3.06756e-12 0 0 2.98347e-26
2654 89 0.0015 -0.619284 -1.8578 0 -1.68312e-12 1.85591e-12 0 1.59781e-20 4.26499e-27
10316 344 0.0015 -0.532903 -1.85672 0 -9.23756e-13 2.20777e-14 0 1.68424e-20 4.59434e-27
10315 344 0.0015 -0.530079 -1.85763 0 2.30743e-12 1.76586e-12 0 1.68424e-20 3.60211e-27
8013 268 0.0015 -0.167482 -1.85688 0 -3.9027e-13 -1.09959e-12 0 3.80484e-21 2.33058e-26
10336 345 0.0015 -0.0706718 -1.85667 0 7.23437e-13 -3.9306e-12 0 0 2.05564e-26
4533 152 0.0015 0.36352 -1.85607 0 3.34972e-13 -2.07698e-12 0 8.59057e-21 1.67941e-26
10272 343 0.0015 0.425614 -1.85738 0 8.74369e-13 8.22662e-12 0 3.72711e-20 3.83616e-26
1486 50 0.0015 0.59026 -1.85684 0 4.58667e-12 2.41313e-12 0 6.81478e-21 5.02454e-26
3522 118 0.0015 0.683648 -1.85795 0 -6.5465e-12 -2.40801e-12 0 0 3.04178e-26
3521 118 0.0015 0.686185 -1.85603 0 -9.34468e-13 -4.05436e-12 0 0 1.52311e-26
2655 89 0.0015 -0.623004 -1.85494 0 -2.41608e-13 7.30889e-13 0 5.32605e-21 4.0659e-27
10318 344 0.0015 -0.538552 -1.85491 0 3.67822e-12 4.00889e-13 0 0 2.57736e-26
10317 344 0.0015 -0.535727 -1.85581 0 -6.24119e-12 1.60159e-12 0 1.68424e-20 2.39645e-26
6037 202 0.0015 -0.342237 -1.85471 0 1.39565e-12 -2.18179e-12 0 0 1.11765e-26
1960 66 0.0015 0.0113172 -1.85437 0 1.34308e-13 -9.44233e-13 0 1.04021e-20 3.61553e-27
3520 118 0.0015 0.688722 -1.85412 0 2.64767e-12 4.20944e-12 0 0 1.48662e-26
2656 89 0.0015 -0.626725 -1.85209 0 1.89835e-12 -2.78003e-12 0 5.32605e-21 6.6779e-27
10320 344 0.0015 -0.5442 -1.85309 0 -4.49272e-12 2.21603e-12 0 0 2.02322e-26
10319 344 0.0015 -0.541376 -1.854 0 5.92979e-12 -3.90859e-12 0 0 2.31629e-26
10337 345 0.0015 -0.0713486 -1.85356 0 -2.38752e-12 1.04087e-11 0 0 5.09352e-26
8048 269 0.0015 0.150617 -1.85348 0 -8.81971e-13 8.4054e-12 0 0 6.72753e-26
10273 343 0.0015 0.426335 -1.85342 0 1.84098e-13 -8.97993e-13 0 2.48474e-20 2.4824e-26
1487 50 0.0015 0.592486 -1.85392 0 -7.71662e-12 -8.19325e-12 0 1.36296e-20 6.6409e-26
3519 118 0.0015 0.69126 -1.8522 0 1.07247e-12 2.33396e-13 0 0 2.5262e-27
10338 345 0.0015 -0.0720254 -1.85046 0 1.88499e-12 -9.74756e-12 0 0 4.51015e-26
10205 341 0.0015 0.286904 -1.85184 0 4.1004e-13 -3.05268e-12 0 7.37441e-21 9.23247e-27
6006 201 0.0015 0.506013 -1.85168 0 6.27471e-13 1.98804e-12 0 0 5.14669e-27
1488 50 0.0015 0.594712 -1.85101 0 1.10056e-12 8.43665e-13 0 1.36296e-20 3.03115e-26
3518 118 0.0015 0.693797 -1.85028 0 -4.40216e-12 -1.98782e-12 0 1.57149e-20 1.08469e-26
2657 89 0.0015 -0.630446 -1.84923 0 -5.35712e-13 1.50658e-12 0 5.32605e-21 3.78499e-27
1961 66 0.0015 0.0108371 -1.84959 0 -5.57505e-13 4.44186e-12 0 5.20104e-21 3.46288e-26
4772 160 0.0015 0.0782973 -1.84905 0 -8.02547e-15 2.84446e-13 0 0 8.67935e-27
10274 343 0.0015 0.427056 -1.84946 0 -2.40641e-12 -1.28397e-11 0 1.24237e-20 1.25083e-25
1489 50 0.0015 0.596939 -1.8481 0 3.41808e-14 4.85488e-13 0 6.81478e-21 1.75308e-26
3517 118 0.0015 0.696334 -1.84837 0 9.79863e-12 3.56053e-12 0 1.57149e-20 4.99436e-26
2658 89 0.0015 -0.634167 -1.84638 0 9.18363e-13 -1.02405e-12 0 0 3.82791e-27
6038 202 0.0015 -0.34704 -1.84697 0 1.00639e-12 -1.72828e-12 0 0 1.74294e-26
10339 345 0.0015 -0.0727023 -1.84735 0 5.0669e-13 1.01932e-12 0 0 2.28085e-26
8049 269 0.0015 0.149922 -1.84674 0 5.10077e-13 -4.7678e-12 0 0 3.60926e-26
6541 219 0.0015 0.213251 -1.84656 0 -8.31496e-14 1.05223e-12 0 0 2.19996e-27
4534 152 0.0015 0.362172 -1.84745 0 -5.9991e-13 3.77744e-12 0 8.59057e-21 1.99348e-26
3516 118 0.0015 0.698871 -1.84645 0 -1.08613e-11 -4.44498e-12 0 1.57149e-20 5.92519e-26
8014 268 0.0015 -0.163039 -1.84452 0 -7.55049e-13 -2.08059e-12 0 3.80484e-21 8.93415e-27
10340 345 0.0015 -0.0733791 -1.84424 0 -2.22283e-12 5.79661e-12 0 0 1.66345e-26
1962 66 0.0015 0.010357 -1.84481 0 1.19951e-12 -1.03596e-11 0 5.20104e-21 7.25958e-26
10206 341 0.0015 0.286103 -1.84511 0 -1.80384e-13 1.3689e-12 0 1.8436e-20 6.64679e-27
10275 343 0.0015 0.427777 -1.84551 0 5.03314e-12 2.68467e-11 0 0 4.43666e-25
1490 50 0.0015 0.599165 -1.84519 0 3.50212e-12 4.30012e-12 0 6.81478e-21 1.56479e-26
3515 118 0.0015 0.701409 -1.84454 0 5.36699e-12 3.0542e-12 0 0 2.02445e-26
2659 89 0.0015 -0.637888 -1.84352 0 -6.03332e-12 4.64993e-12 0 0 4.95802e-26
6007 201 0.0015 0.509028 -1.84391 0 -1.0243e-12 -3.13129e-12 0 0 1.53211e-26
1491 50 0.0015 0.601391 -1.84228 0 6.34199e-14 4.17302e-15 0 1.36296e-20 1.64296e-26
3514 118 0.0015 0.703946 -1.84262 0 -3.22907e-12 -2.66254e-12 0 0 8.11629e-27
2660 89 0.0015 -0.641609 -1.84066 0 9.42334e-12 -7.86873e-12 0 0 9.81134e-26
10341 345 0.0015 -0.074056 -1.84114 0 1.73955e-12 -3.49424e-12 0 1.57149e-20 8.55013e-27
1963 66 0.0015 0.00987681 -1.84004 0 -8.56082e-13 7.14029e-12 0 1.04021e-20 4.28604e-26
10276 343 0.0015 0.428498 -1.84155 0 -5.03314e-12 -2.68467e-11 0 0 4.43666e-25
3513 118 0.0015 0.706483 -1.84071 0 3.55971e-12 2.63645e-12 0 0 8.8793e-27
6039 202 0.0015 -0.351842 -1.83924 0 -1.63795e-12 2.67915e-12 0 0 1.74626e-26
10342 345 0.0015 -0.0747328 -1.83803 0 -1.61392e-12 4.03224e-12 0 1.57149e-20 1.14268e-26
4773 160 0.0015 0.0780361 -1.83985 0 -7.9165e-14 2.65431e-12 0 0 9.16769e-27
8050 269 0.0015 0.149226 -1.84 0 1.67753e-13 -1.49111e-12 0 0 7.42808e-27
6542 219 0.0015 0.21269 -1.83947 0 4.56626e-13 -5.6485e-12 0 3.51396e-21 4.41914e-26
10207 341 0.0015 0.285302 -1.83839 0 -2.25588e-13 2.10849e-12 0 1.47488e-20 5.65381e-27
4535 152 0.0015 0.360823 -1.83883 0 8.37667e-14 -3.72921e-13 0 8.59057e-21 5.4823e-27
1492 50 0.0015 0.603618 -1.83936 0 -3.38459e-12 -4.85037e-12 0 1.36296e-20 1.77935e-26
3512 118 0.0015 0.70902 -1.83879 0 -5.73175e-12 -4.52213e-12 0 0 2.91489e-26
2661 89 0.0015 -0.64533 -1.83781 0 -6.10614e-12 5.88347e-12 0 5.32605e-21 5.79372e-26
10277 343 0.0015 0.429219 -1.8376 0 2.40641e-12 1.28397e-11 0 1.24237e-20 1.25083e-25
6008 201 0.0015 0.512043 -1.83614 0 1.21093e-12 3.54501e-12 0 0 1.76174e-26
1493 50 0.0015 0.605844 -1.83645 0 5.8231e-13 1.7023e-12 0 6.81478e-21 1.12905e-26
3511 118 0.0015 0.711558 -1.83688 0 4.23111e-12 3.41428e-12 0 0 2.60768e-26
2662 89 0.0015 -0.649051 -1.83495 0 -3.30214e-13 -6.58347e-13 0 5.32605e-21 1.07033e-26
10343 345 0.0015 -0.0754097 -1.83493 0 1.54882e-12 -7.15607e-12 0 1.57149e-20 2.3709e-26
1964 66 0.0015 0.00939668 -1.83526 0 2.06176e-13 -1.40712e-12 0 1.04021e-20 4.65238e-27
2663 89 0.0015 -0.652772 -1.8321 0 3.04401e-12 -1.93881e-12 0 5.32605e-21 8.4855e-27
10171 340 0.0015 -0.234195 -1.83312 0 1.27505e-12 -1.8055e-12 0 6.39056e-21 1.06096e-26
8015 268 0.0015 -0.158597 -1.83216 0 6.7925e-13 1.87257e-12 0 3.80484e-21 7.32648e-27
8051 269 0.0015 0.14853 -1.83326 0 -3.55061e-13 2.98738e-12 0 0 9.22281e-27
6543 219 0.0015 0.212128 -1.83239 0 -4.93803e-13 6.03693e-12 0 3.51396e-21 4.61184e-26
10278 343 0.0015 0.429939 -1.83364 0 -1.84098e-13 8.97993e-13 0 2.48474e-20 2.4824e-26
1494 50 0.0015 0.60807 -1.83354 0 2.34034e-12 3.03523e-12 0 0 8.151e-27
6040 202 0.0015 -0.356645 -1.83151 0 -6.89101e-13 1.17737e-12 0 0 1.03567e-26
10344 345 0.0015 -0.0760865 -1.83182 0 -1.39496e-12 9.92434e-12 0 0 4.65971e-26
1965 66 0.0015 0.00891654 -1.83048 0 -3.82521e-14 1.59676e-13 0 5.20104e-21 6.42981e-28
4774 160 0.0015 0.0777749 -1.83066 0 6.66459e-14 -2.177e-12 0 2.71488e-21 6.93626e-27
10208 341 0.0015 0.284501 -1.83166 0 6.36082e-13 -5.3543e-12 0 1.10616e-20 3.12785e-26
4536 152 0.0015 0.359475 -1.83021 0 2.00874e-13 -1.41503e-12 0 0 2.57092e-27
1495 50 0.0015 0.610297 -1.83063 0 -3.83433e-12 -6.16498e-12 0 0 2.91508e-26
2664 89 0.0015 -0.656493 -1.82924 0 -1.40423e-12 6.14521e-13 0 0 3.52988e-27
10345 345 0.0015 -0.0767633 -1.82871 0 -2.09101e-13 -2.82981e-12 0 0 4.43978e-26
10279 343 0.0015 0.43066 -1.82968 0 -8.74369e-13 -8.22662e-12 0 3.72711e-20 3.83616e-26
6009 201 0.0015 0.515058 -1.82837 0 1.71779e-14 -1.22218e-13 0 0 7.44718e-27
2665 89 0.0015 -0.660213 -1.82639 0 -5.0008e-14 8.87338e-13 0 0 2.69366e-28
10172 340 0.0015 -0.238704 -1.82673 0 -2.503e-12 3.59316e-12 0 1.27811e-20 2.08222e-26
8052 269 0.0015 0.147835 -1.82652 0 1.53991e-13 -1.09983e-12 0 0 2.15793e-27
1496 50 0.0015 0.612523 -1.82772 0 3.5023e-12 5.97609e-12 0 0 2.74926e-26
10346 345 0.0015 -0.0774402 -1.82561 0 3.08677e-12 -1.15567e-11 0 0 7.41615e-26
1966 66 0.0015 0.0084364 -1.8257 0 1.00565e-12 -9.47656e-12 0 0 1.07632e-25
6544 219 0.0015 0.211567 -1.8253 0 -9.65507e-14 1.22642e-12 0 3.51396e-21 1.82662e-26
10209 341 0.0015 0.2837 -1.82493 0 -7.65353e-13 6.04907e-12 0 0 3.66603e-26
10280 343 0.0015 0.431381 -1.82573 0 7.49475e-13 7.39599e-12 0 2.48474e-20 3.21502e-26
1497 50 0.0015 0.614749 -1.8248 0 3.50831e-13 -8.92445e-13 0 0 7.41003e-27
2666 89 0.0015 -0.663934 -1.82353 0 -1.46798e-13 -7.52586e-13 0 0 2.49585e-28
6041 202 0.0015 -0.361448 -1.82377 0 4.14896e-13 -7.4768e-13 0 0 1.24991e-26
10347 345 0.0015 -0.078117 -1.8225 0 -1.13689e-12 3.25371e-12 0 1.57149e-20 8.61867e-26
2667 89 0.0015 -0.667655 -1.82068 0 -1.0149e-14 5.7212e-13 0 0 2.66234e-28
10173 340 0.0015 -0.243212 -1.82034 0 5.00847e-13 -8.77982e-13 0 1.91717e-20 1.31473e-26
1967 66 0.0015 0.00795626 -1.82092 0 -1.87123e-12 1.76017e-11 0 5.20104e-21 2.09034e-25
4775 160 0.0015 0.0775136 -1.82146 0 -1.20055e-13 4.10536e-12 0 5.42976e-21 3.12641e-26
4537 152 0.0015 0.358127 -1.82159 0 -4.16169e-13 2.68796e-12 0 0 1.19623e-26
10281 343 0.0015 0.432102 -1.82177 0 -6.77167e-13 -6.98673e-12 0 1.24237e-20 2.81474e-26
6010 201 0.0015 0.518074 -1.8206 0 1.34784e-13 4.15742e-13 0 0 9.70691e-27
1498 50 0.0015 0.616976 -1.82189 0 -3.93153e-12 -3.25148e-12 0 0 1.40241e-26
8016 268 0.0015 -0.154154 -1.81981 0 -7.60449e-13 -2.09306e-12 0 1.90242e-21 9.42548e-27
10348 345 0.0015 -0.0787939 -1.81939 0 -1.63198e-12 8.79701e-12 0 1.57149e-20 3.59286e-26
8053 269 0.0015 0.147139 -1.81978 0 2.06925e-13 -2.14653e-12 0 0 9.07978e-27
6545 219 0.0015 0.211005 -1.81821 0 3.19175e-13 -4.03173e-12 0 0 1.78372e-26
10210 341 0.0015 0.282899 -1.8182 0 8.99237e-14 -2.27866e-13 0 0 1.93084e-26
1499 50 0.0015 0.619202 -1.81898 0 3.21036e-12 2.17325e-12 0 0 1.1398e-26
2668 89 0.0015 -0.671376 -1.81782 0 1.88657e-12 -1.73077e-12 0 0 6.03895e-27
6042 202 0.0015 -0.366251 -1.81604 0 2.9947e-12 -4.81363e-12 0 2.74394e-21 5.61022e-26
10349 345 0.0015 -0.0794707 -1.81629 0 5.12681e-13 -3.07961e-12 0 1.57149e-20 1.38109e-26
1968 66 0.0015 0.00747613 -1.81614 0 1.15673e-12 -1.05217e-11 0 5.20104e-21 1.06386e-25
10282 343 0.0015 0.432823 -1.81781 0 3.99547e-13 4.94535e-12 0 0 1.95826e-26
1500 50 0.0015 0.621428 -1.81607 0 -6.12172e-13 2.89335e-14 0 0 1.239e-28
2669 89 0.0015 -0.675097 -1.81497 0 -2.56539e-13 2.84114e-13 0 0 9.6832e-27
5941 199 0.0015 0.740778 -1.81551 0 -3.47741e-13 -1.50386e-12 0 2.60052e-21 6.35611e-27
2670 89 0.0015 -0.678818 -1.81211 0 -1.37564e-12 1.04956e-12 0 0 3.90057e-27
10174 340 0.0015 -0.24772 -1.81396 0 8.54316e-13 -1.03671e-12 0 1.27811e-20 3.00278e-27
10350 345 0.0015 -0.0801475 -1.81318 0 2.16511e-13 -7.33015e-13 0 0 5.13162e-28
4776 160 0.0015 0.0772524 -1.81226 0 1.90721e-13 -6.54213e-12 0 5.42976e-21 5.48708e-26
8054 269 0.0015 0.146443 -1.81304 0 -1.47376e-13 1.44236e-12 0 0 1.0125e-26
4538 152 0.0015 0.356779 -1.81297 0 1.37123e-13 -8.89355e-13 0 5.72705e-21 1.49319e-26
10283 343 0.0015 0.433544 -1.81386 0 -2.95351e-14 -2.86025e-13 0 0 1.11076e-27
6011 201 0.0015 0.521089 -1.81283 0 -1.1409e-12 -3.06876e-12 0 0 1.24041e-26
1969 66 0.0015 0.00699599 -1.81136 0 -4.55449e-13 3.85507e-12 0 5.20104e-21 1.00717e-26
6546 219 0.0015 0.210443 -1.81113 0 -1.92212e-13 2.54433e-12 0 3.51396e-21 6.46197e-27
10211 341 0.0015 0.282098 -1.81148 0 4.63569e-13 -4.10051e-12 0 0 1.6047e-26
6043 202 0.0015 -0.371054 -1.8083 0 -4.3344e-12 7.05056e-12 0 5.48788e-21 8.76087e-26
10284 343 0.0015 0.434265 -1.8099 0 6.30665e-13 4.08361e-13 0 0 1.59373e-27
10175 340 0.0015 -0.252228 -1.80757 0 -9.61462e-13 1.33532e-12 0 6.39056e-21 4.74948e-27
8017 268 0.0015 -0.149712 -1.80745 0 8.56108e-13 2.34916e-12 0 3.80484e-21 1.14623e-26
1970 66 0.0015 0.00651585 -1.80658 0 1.14347e-12 -1.06134e-11 0 0 1.05139e-25
8055 269 0.0015 0.145748 -1.8063 0 -4.14574e-13 4.03607e-12 0 0 2.16787e-26
5942 199 0.0015 0.743061 -1.80618 0 6.54584e-13 2.96132e-12 0 2.60052e-21 1.22691e-26
6547 219 0.0015 0.209882 -1.80404 0 -3.09876e-14 5.96025e-13 0 3.51396e-21 9.0185e-27