ITEM: TIMESTEP
39990
ITEM: NUMBER OF ATOMS
10500
ITEM: BOX BOUNDS pp pp pp
-1.0249999999999999e+00 1.0249999999999999e+00
-2.0000000000000000e+00 2.0000000000000000e+00
-5.0000000000000003e-02 5.0000000000000003e-02
ITEM: ATOMS id type radius x y z fx fy fz c_bendingE c_stretchingE
10321 345 0.0015 -0.0605191 -1.90326 0 -8.92779e-13 3.5713e-12 0 0 1.1956e-26
6031 202 0.0015 -0.31342 -1.90111 0 1.27189e-12 -2.08222e-12 0 0 1.5054e-26
10322 345 0.0015 -0.061196 -1.90016 0 9.85861e-13 -3.15057e-12 0 0 1.20912e-26
8041 269 0.0015 0.155487 -1.90065 0 1.43514e-13 -1.48146e-12 0 0 4.1688e-27
10261 343 0.0015 0.417684 -1.90089 0 -4.82411e-13 -1.93105e-12 0 1.24237e-20 4.40689e-27
1471 50 0.0015 0.556864 -1.90052 0 -1.76489e-12 -2.92988e-12 0 0 1.17671e-26
10323 345 0.0015 -0.0618728 -1.89705 0 1.37318e-13 -1.67358e-12 0 0 1.56663e-27
1951 66 0.0015 0.0156385 -1.89738 0 1.39154e-13 -1.74547e-12 0 0 4.08877e-27
10262 343 0.0015 0.418405 -1.89694 0 1.46492e-12 5.84241e-12 0 1.24237e-20 2.24957e-26
1472 50 0.0015 0.559091 -1.8976 0 9.87948e-13 2.4122e-12 0 0 1.25613e-26
2641 89 0.0015 -0.570912 -1.89491 0 1.64879e-12 -1.32817e-12 0 0 5.83666e-27
1473 50 0.0015 0.561317 -1.89469 0 5.08308e-13 5.70402e-13 0 6.81478e-21 8.09141e-28
2642 89 0.0015 -0.574633 -1.89206 0 -1.46038e-12 1.39901e-12 0 0 5.8514e-27
6032 202 0.0015 -0.318223 -1.89337 0 -2.14836e-12 3.56717e-12 0 0 2.2569e-26
10324 345 0.0015 -0.0625496 -1.89394 0 4.13693e-13 -2.13354e-12 0 1.57149e-20 1.19173e-26
1952 66 0.0015 0.0151583 -1.8926 0 -1.53532e-13 2.35233e-12 0 0 4.57753e-27
8042 269 0.0015 0.154791 -1.89391 0 -2.41794e-13 2.62853e-12 0 3.6872e-21 6.66235e-27
10263 343 0.0015 0.419126 -1.89298 0 -1.3707e-12 -4.96986e-12 0 1.24237e-20 1.94675e-26
3540 118 0.0015 0.637977 -1.89243 0 -5.01391e-12 -3.97082e-12 0 0 3.61052e-26
6061 203 0.0015 -0.387409 -1.89062 0 1.49429e-12 1.69037e-12 0 0 2.18491e-28
10325 345 0.0015 -0.0632265 -1.89084 0 -1.14916e-12 5.94217e-12 0 3.14298e-20 1.64774e-26
10231 342 0.0015 0.215 -1.89 0 -7.30424e-13 0 0 0 1.02269e-28
10232 342 0.0015 0.21569 -1.89 0 3.98209e-13 0 0 0 1.23412e-28
10233 342 0.0015 0.216379 -1.89 0 2.39059e-12 0 0 0 8.3281e-28
10234 342 0.0015 0.217069 -1.89 0 -4.74562e-12 0 0 0 2.19437e-27
10235 342 0.0015 0.217759 -1.89 0 5.7227e-12 0 0 0 3.14887e-27
10236 342 0.0015 0.218448 -1.89 0 -6.59156e-12 0 0 0 4.18845e-27
10237 342 0.0015 0.219138 -1.89 0 8.2224e-12 0 0 0 6.59359e-27
10238 342 0.0015 0.219828 -1.89 0 -8.04151e-12 0 0 0 6.35314e-27
10239 342 0.0015 0.220517 -1.89 0 5.2165e-12 0 0 0 2.83115e-27
10240 342 0.0015 0.221207 -1.89 0 -4.56429e-12 0 0 0 2.06956e-27
10241 342 0.0015 0.221897 -1.89 0 5.28805e-12 0 0 0 2.68109e-27
10242 342 0.0015 0.222586 -1.89 0 -2.46281e-12 0 0 0 1.26286e-27
10243 342 0.0015 0.223276 -1.89 0 -3.61766e-13 0 0 0 1.49378e-29
10244 342 0.0015 0.223966 -1.89 0 -7.24865e-13 0 0 0 1.9849e-28
10245 342 0.0015 0.224655 -1.89 0 3.69477e-12 0 0 0 1.59284e-27
10246 342 0.0015 0.225345 -1.89 0 -3.69477e-12 0 0 0 1.59284e-27
10247 342 0.0015 0.226034 -1.89 0 7.24865e-13 0 0 0 1.9849e-28
10248 342 0.0015 0.226724 -1.89 0 3.61766e-13 0 0 0 1.49378e-29
10249 342 0.0015 0.227414 -1.89 0 2.46281e-12 0 0 0 1.26286e-27
10250 342 0.0015 0.228103 -1.89 0 -5.28805e-12 0 0 0 2.68109e-27
10251 342 0.0015 0.228793 -1.89 0 4.56429e-12 0 0 0 2.06956e-27
10252 342 0.0015 0.229483 -1.89 0 -5.2165e-12 0 0 0 2.83115e-27
10253 342 0.0015 0.230172 -1.89 0 8.04151e-12 0 0 0 6.35314e-27
10254 342 0.0015 0.230862 -1.89 0 -8.2224e-12 0 0 0 6.59359e-27
10255 342 0.0015 0.231552 -1.89 0 6.59156e-12 0 0 0 4.18845e-27
10256 342 0.0015 0.232241 -1.89 0 -5.7227e-12 0 0 0 3.14887e-27
10257 342 0.0015 0.232931 -1.89 0 4.74562e-12 0 0 0 2.19437e-27
10258 342 0.0015 0.233621 -1.89 0 -2.39059e-12 0 0 0 8.3281e-28
10259 342 0.0015 0.23431 -1.89 0 -3.98209e-13 0 0 0 1.23412e-28
10260 342 0.0015 0.235 -1.89 0 7.30424e-13 0 0 0 1.02269e-28
6001 201 0.0015 0.490936 -1.89052 0 6.24078e-13 1.69876e-12 0 0 7.57895e-27
1474 50 0.0015 0.563543 -1.89178 0 4.94996e-13 2.33545e-13 0 6.81478e-21 1.50562e-28
3539 118 0.0015 0.640514 -1.89051 0 7.11956e-12 5.74923e-12 0 0 4.27937e-26
2643 89 0.0015 -0.578354 -1.8892 0 -9.74575e-13 3.45749e-13 0 5.32605e-21 1.01746e-27
6063 203 0.0015 -0.391043 -1.8889 0 3.25403e-12 5.24819e-12 0 0 3.81011e-28
6064 203 0.0015 -0.392859 -1.88804 0 -3.01837e-12 -5.54379e-12 0 0 1.35816e-28
6062 203 0.0015 -0.389226 -1.88976 0 -3.76432e-12 -4.57077e-12 0 0 5.90637e-28
10264 343 0.0015 0.419847 -1.88903 0 2.05722e-13 -3.3051e-13 0 0 3.56563e-27
1475 50 0.0015 0.56577 -1.88887 0 1.99148e-12 1.75101e-12 0 6.81478e-21 9.0899e-27
3538 118 0.0015 0.643052 -1.8886 0 -2.48495e-12 -1.65376e-12 0 0 6.73424e-27
2644 89 0.0015 -0.582074 -1.88635 0 1.01771e-12 -4.93228e-13 0 5.32605e-21 1.07185e-27
6066 203 0.0015 -0.396492 -1.88631 0 2.67124e-12 -8.77161e-12 0 0 2.09077e-26
6065 203 0.0015 -0.394676 -1.88717 0 4.05949e-12 7.57308e-12 0 0 1.28649e-28
7981 267 0.0015 -0.194876 -1.88635 0 -1.02214e-12 -1.37854e-12 0 0 1.51536e-28
10326 345 0.0015 -0.0639033 -1.88773 0 9.93812e-13 -4.23735e-12 0 4.71447e-20 8.68693e-27
1953 66 0.0015 0.0146782 -1.88782 0 -2.30733e-13 1.77402e-12 0 0 8.13152e-27
8043 269 0.0015 0.154095 -1.88717 0 3.46078e-13 -3.68266e-12 0 7.37441e-21 1.47077e-26
3537 118 0.0015 0.645589 -1.88668 0 5.33263e-14 -1.01205e-12 0 1.57149e-20 6.03655e-28
6068 203 0.0015 -0.400126 -1.88459 0 1.25035e-11 -1.11396e-12 0 0 5.32888e-26
6067 203 0.0015 -0.398309 -1.88545 0 -1.41547e-11 6.60007e-12 0 0 7.13049e-26
6033 202 0.0015 -0.323025 -1.88564 0 6.44297e-13 -1.20378e-12 0 0 7.84519e-27
7983 267 0.0015 -0.199527 -1.8846 0 -4.53671e-12 -2.26404e-12 0 0 4.447e-27
7982 267 0.0015 -0.197202 -1.88548 0 3.03421e-12 3.26466e-12 0 0 1.17081e-27
10327 345 0.0015 -0.0645802 -1.88463 0 -1.5192e-12 5.78013e-12 0 3.14298e-20 1.84517e-26
10265 343 0.0015 0.420568 -1.88507 0 8.40337e-14 1.00561e-12 0 1.24237e-20 2.36111e-27
1476 50 0.0015 0.567996 -1.88596 0 -4.58612e-12 -3.90512e-12 0 0 1.76495e-26
3536 118 0.0015 0.648126 -1.88476 0 1.99299e-13 1.29293e-12 0 3.14298e-20 5.76029e-28
2645 89 0.0015 -0.585795 -1.88349 0 -1.01818e-12 5.06823e-13 0 1.06521e-20 1.09174e-27
6071 203 0.0015 -0.405575 -1.882 0 3.32697e-12 1.96051e-12 0 2.48474e-20 1.53406e-26
6070 203 0.0015 -0.403759 -1.88287 0 -8.97977e-12 3.45399e-12 0 2.48474e-20 2.57336e-26
6069 203 0.0015 -0.401942 -1.88373 0 1.32823e-12 -3.48048e-12 0 2.48474e-20 1.66669e-26
7985 267 0.0015 -0.204179 -1.88284 0 -1.42705e-12 -2.63056e-12 0 0 5.99243e-28
7984 267 0.0015 -0.201853 -1.88372 0 3.73958e-12 1.24703e-12 0 0 3.90236e-27
1954 66 0.0015 0.0141981 -1.88304 0 5.81409e-13 -5.76962e-12 0 5.20104e-21 2.31142e-26
6002 201 0.0015 0.493952 -1.88275 0 -5.04033e-13 -1.57191e-12 0 0 7.63946e-27
1477 50 0.0015 0.570222 -1.88304 0 2.96186e-12 1.90661e-12 0 0 8.85106e-27
3535 118 0.0015 0.650663 -1.88285 0 6.54868e-13 -9.66434e-13 0 4.71447e-20 2.43013e-29
2646 89 0.0015 -0.589516 -1.88064 0 1.72846e-12 -1.10433e-12 0 5.32605e-21 2.76839e-27
6073 203 0.0015 -0.409209 -1.88028 0 -1.1894e-11 7.91851e-12 0 0 5.69331e-26
6072 203 0.0015 -0.407392 -1.88114 0 7.57714e-12 -8.57774e-12 0 0 3.96768e-26
7988 267 0.0015 -0.211156 -1.8802 0 -1.43843e-12 -2.18867e-13 0 1.00459e-20 8.36792e-28
7987 267 0.0015 -0.208831 -1.88108 0 9.57114e-14 -2.5636e-14 0 1.00459e-20 2.78897e-29
7986 267 0.0015 -0.206505 -1.88196 0 5.34229e-13 2.3758e-12 0 1.00459e-20 1.29487e-28
8011 268 0.0015 -0.176367 -1.88159 0 -3.85358e-13 -1.06686e-12 0 0 4.69303e-27
10328 345 0.0015 -0.065257 -1.88152 0 1.2778e-12 -5.07565e-12 0 1.57149e-20 1.66524e-26
8044 269 0.0015 0.1534 -1.88043 0 -6.98028e-13 6.85376e-12 0 7.37441e-21 4.76862e-26
10266 343 0.0015 0.421289 -1.88111 0 2.2234e-14 1.02274e-13 0 2.48474e-20 2.68225e-28
1478 50 0.0015 0.572449 -1.88013 0 -1.06084e-12 -8.41873e-13 0 0 1.02112e-27
3534 118 0.0015 0.653201 -1.88093 0 6.49348e-13 2.49624e-12 0 4.71447e-20 3.92262e-27
10292 344 0.0015 -0.465124 -1.8785 0 3.77727e-12 -6.07955e-13 0 0 6.29255e-27
10291 344 0.0015 -0.4623 -1.87941 0 -1.3968e-12 2.25977e-13 0 0 1.61263e-27
6074 203 0.0015 -0.411025 -1.87942 0 1.13341e-11 -3.65269e-12 0 0 3.89572e-26
6075 203 0.0015 -0.412842 -1.87856 0 -1.39755e-11 7.07668e-12 0 0 7.34247e-26
7990 267 0.0015 -0.215808 -1.87844 0 -6.33868e-14 -2.47237e-12 0 0 3.18005e-28
7989 267 0.0015 -0.213482 -1.87932 0 3.33618e-13 -3.18603e-13 0 0 1.11527e-27
10329 345 0.0015 -0.0659339 -1.87841 0 -1.10006e-13 2.54082e-13 0 1.57149e-20 1.37405e-27
1955 66 0.0015 0.0137179 -1.87827 0 -2.51298e-13 2.58149e-12 0 1.04021e-20 1.63504e-26
10201 341 0.0015 0.290108 -1.87875 0 1.99789e-14 3.05755e-14 0 0 1.47537e-30
3533 118 0.0015 0.655738 -1.87902 0 -7.28265e-13 -1.41346e-12 0 3.14298e-20 4.31647e-27
2647 89 0.0015 -0.593237 -1.87778 0 2.8219e-14 1.90094e-14 0 5.32605e-21 3.52434e-27
10294 344 0.0015 -0.470773 -1.87669 0 6.33849e-12 -1.34532e-12 0 0 1.71224e-26
10293 344 0.0015 -0.467948 -1.87759 0 -5.52248e-12 1.0017e-12 0 0 1.30175e-26
6077 203 0.0015 -0.416475 -1.87683 0 -1.20482e-11 1.09142e-11 0 2.48474e-20 8.08984e-26
6076 203 0.0015 -0.414658 -1.87769 0 1.68443e-11 -1.38607e-11 0 2.48474e-20 1.25501e-25
6034 202 0.0015 -0.327828 -1.87791 0 1.77404e-13 -9.08911e-14 0 0 4.21984e-28
7992 267 0.0015 -0.22046 -1.87668 0 -4.97162e-12 -6.01243e-12 0 1.00459e-20 3.0564e-27
7991 267 0.0015 -0.218134 -1.87756 0 4.29124e-12 5.98977e-12 0 0 2.9179e-27
10267 343 0.0015 0.42201 -1.87716 0 8.4564e-13 3.90119e-12 0 2.48474e-20 1.5381e-26
1479 50 0.0015 0.574675 -1.87722 0 -1.05115e-13 7.36466e-13 0 0 1.02859e-27
3532 118 0.0015 0.658275 -1.8771 0 -2.53205e-12 -3.70861e-12 0 1.57149e-20 1.17332e-26
2648 89 0.0015 -0.596958 -1.87493 0 -1.41038e-12 8.64856e-13 0 5.32605e-21 2.07501e-27
10296 344 0.0015 -0.476421 -1.87487 0 1.72311e-12 1.20776e-13 0 0 8.80708e-27
10295 344 0.0015 -0.473597 -1.87578 0 -6.0714e-12 1.4872e-12 0 0 1.60533e-26
6080 203 0.0015 -0.421925 -1.87425 0 -3.52022e-13 -9.15364e-12 0 0 3.73542e-27
6079 203 0.0015 -0.420108 -1.87511 0 -8.27844e-13 2.46014e-12 0 0 2.53758e-27
6078 203 0.0015 -0.418291 -1.87597 0 3.36684e-12 -2.3054e-12 0 2.48474e-20 1.05574e-26
7995 267 0.0015 -0.227437 -1.87404 0 -8.89782e-13 -1.60393e-12 0 1.00459e-20 6.77941e-29
7994 267 0.0015 -0.225111 -1.87492 0 1.75235e-12 -2.97818e-13 0 2.00918e-20 1.48747e-27
7993 267 0.0015 -0.222785 -1.8758 0 1.70581e-13 3.16657e-12 0 2.00918e-20 1.5761e-27
10330 345 0.0015 -0.0666107 -1.87531 0 -3.15984e-13 1.2691e-12 0 3.14298e-20 7.66481e-28
6003 201 0.0015 0.496967 -1.87498 0 -1.25245e-13 -4.18265e-14 0 0 7.43731e-29
1480 50 0.0015 0.576901 -1.87431 0 2.09617e-12 1.18506e-12 0 0 3.51395e-27
3531 118 0.0015 0.660812 -1.87519 0 -3.2642e-13 3.16373e-12 0 0 1.46452e-26
2649 89 0.0015 -0.600679 -1.87207 0 7.47029e-13 -6.34933e-14 0 5.32605e-21 3.27461e-28
10299 344 0.0015 -0.484893 -1.87215 0 -7.81059e-12 1.02519e-12 0 3.36849e-20 2.48352e-26
10298 344 0.0015 -0.482069 -1.87306 0 3.23059e-12 1.08859e-12 0 1.68424e-20 1.54658e-26
10297 344 0.0015 -0.479245 -1.87396 0 2.14056e-12 -2.27728e-12 0 0 3.0807e-27
6082 203 0.0015 -0.425558 -1.87252 0 -4.00058e-12 -7.90386e-12 0 2.48474e-20 1.25782e-26
6081 203 0.0015 -0.423741 -1.87338 0 7.11158e-12 1.03921e-11 0 2.48474e-20 7.96388e-27
7997 267 0.0015 -0.232089 -1.87228 0 -5.40445e-12 1.74829e-12 0 1.00459e-20 1.14466e-26
7996 267 0.0015 -0.229763 -1.87316 0 3.03271e-12 1.50956e-12 0 1.00459e-20 3.80863e-27
10331 345 0.0015 -0.0672875 -1.8722 0 6.10202e-13 -1.60132e-12 0 3.14298e-20 1.40202e-27
1956 66 0.0015 0.0132378 -1.87349 0 -4.96746e-13 4.83837e-12 0 1.04021e-20 2.27848e-26
8045 269 0.0015 0.152704 -1.87369 0 6.25949e-13 -5.79734e-12 0 3.6872e-21 3.96466e-26
10202 341 0.0015 0.289307 -1.87202 0 2.13096e-13 -2.31549e-12 0 0 9.92582e-27
4531 152 0.0015 0.366216 -1.8733 0 -2.25784e-13 1.41186e-12 0 0 4.95377e-27
10268 343 0.0015 0.422731 -1.8732 0 -9.69122e-13 -4.26087e-12 0 1.24237e-20 1.57827e-26
3530 118 0.0015 0.66335 -1.87327 0 5.24269e-12 1.19398e-12 0 0 1.10856e-26
10301 344 0.0015 -0.490541 -1.87033 0 7.38915e-12 -1.53502e-12 0 1.68424e-20 2.71122e-26
10300 344 0.0015 -0.487717 -1.87124 0 1.4345e-12 -2.00701e-13 0 3.36849e-20 1.49427e-26
6084 203 0.0015 -0.429191 -1.8708 0 4.82849e-12 -1.4557e-12 0 0 1.15874e-26
6083 203 0.0015 -0.427374 -1.87166 0 -6.29253e-12 4.86992e-12 0 2.48474e-20 1.73369e-26
6035 202 0.0015 -0.332631 -1.87017 0 6.89711e-13 -1.29327e-12 0 0 4.18329e-27
7999 267 0.0015 -0.23674 -1.87052 0 2.10028e-12 6.59839e-12 0 0 2.61782e-27
7998 267 0.0015 -0.234415 -1.8714 0 2.99444e-12 -5.86249e-12 0 1.00459e-20 9.29659e-27
1481 50 0.0015 0.579128 -1.8714 0 -9.24482e-13 2.9545e-13 0 0 5.60266e-27
3529 118 0.0015 0.665887 -1.87136 0 -5.54083e-12 -2.9129e-12 0 1.57149e-20 1.68746e-26
2650 89 0.0015 -0.6044 -1.86922 0 -5.14047e-13 -6.35727e-13 0 1.06521e-20 5.42275e-29
10303 344 0.0015 -0.49619 -1.86852 0 3.05171e-12 -2.96938e-13 0 0 6.53446e-27
10302 344 0.0015 -0.493366 -1.86943 0 -8.0707e-12 1.36882e-12 0 0 2.95868e-26
6087 203 0.0015 -0.434641 -1.86821 0 -5.50731e-12 1.2418e-12 0 0 8.57775e-27
6085 203 0.0015 -0.431008 -1.86994 0 -3.04462e-12 2.47428e-12 0 0 6.40991e-27
6086 203 0.0015 -0.432824 -1.86908 0 5.1931e-12 -2.59366e-12 0 0 9.63761e-27
8001 267 0.0015 -0.241392 -1.86876 0 -2.40177e-12 6.24022e-12 0 2.00918e-20 7.86711e-27
8000 267 0.0015 -0.239066 -1.86964 0 -1.86507e-12 -5.46879e-12 0 1.00459e-20 2.25585e-27
8012 268 0.0015 -0.171924 -1.86923 0 4.04374e-13 1.1194e-12 0 0 4.70443e-27
10332 345 0.0015 -0.0679644 -1.86909 0 -1.34886e-12 4.02899e-12 0 1.57149e-20 9.60478e-27
1957 66 0.0015 0.0127576 -1.86871 0 5.68929e-13 -5.58252e-12 0 5.20104e-21 2.51498e-26
10269 343 0.0015 0.423451 -1.86924 0 -6.77201e-14 -7.10419e-13 0 0 2.61473e-27
1482 50 0.0015 0.581354 -1.86848 0 -2.54243e-12 -3.87807e-12 0 6.81478e-21 1.22771e-26
3528 118 0.0015 0.668424 -1.86944 0 5.91402e-12 4.11909e-12 0 3.14298e-20 2.31711e-26
2651 89 0.0015 -0.608121 -1.86636 0 -3.22586e-13 1.56669e-12 0 5.32605e-21 1.53213e-27
10305 344 0.0015 -0.501838 -1.8667 0 -3.7516e-12 1.21052e-12 0 0 7.1251e-27
10304 344 0.0015 -0.499014 -1.86761 0 9.79071e-13 -6.2192e-13 0 0 1.43985e-27
6089 203 0.0015 -0.438274 -1.86649 0 1.97327e-12 7.62543e-12 0 2.48474e-20 6.20182e-28
6088 203 0.0015 -0.436457 -1.86735 0 1.82358e-12 -4.89766e-12 0 2.48474e-20 5.49721e-27
8004 267 0.0015 -0.248369 -1.86612 0 -2.82199e-12 -3.99722e-12 0 1.00459e-20 5.49575e-28
8003 267 0.0015 -0.246044 -1.867 0 2.78472e-12 6.61601e-12 0 2.00918e-20 1.75422e-28
8002 267 0.0015 -0.243718 -1.86788 0 8.34436e-13 -7.0754e-12 0 3.01377e-20 6.59919e-27
8046 269 0.0015 0.152008 -1.86695 0 -5.15352e-14 -2.77968e-14 0 0 8.47547e-27
6004 201 0.0015 0.499982 -1.86721 0 -7.86075e-13 -2.05491e-12 0 0 1.04441e-26
3527 118 0.0015 0.670962 -1.86752 0 -4.78028e-13 -2.2319e-13 0 3.14298e-20 2.47376e-26
10307 344 0.0015 -0.507486 -1.86489 0 6.12589e-13 -2.64396e-13 0 1.68424e-20 2.91829e-27
10306 344 0.0015 -0.504662 -1.8658 0 3.6143e-12 -4.86717e-13 0 0 6.46786e-27
6090 203 0.0015 -0.440091 -1.86563 0 -8.30432e-13 -3.61756e-12 0 2.48474e-20 3.57774e-28
8006 267 0.0015 -0.253021 -1.86436 0 -3.17827e-13 2.05314e-12 0 0 9.82868e-28
8005 267 0.0015 -0.250695 -1.86524 0 1.88536e-12 -5.12286e-13 0 0 1.36694e-27
10333 345 0.0015 -0.0686412 -1.86599 0 2.18455e-12 -7.11953e-12 0 1.57149e-20 2.49758e-26
10203 341 0.0015 0.288506 -1.8653 0 -1.56389e-13 1.84392e-12 0 0 1.03003e-26
4532 152 0.0015 0.364868 -1.86469 0 3.31858e-13 -2.04451e-12 0 0 5.95075e-27
10270 343 0.0015 0.424172 -1.86529 0 7.85788e-13 4.09497e-12 0 0 1.0828e-26
1483 50 0.0015 0.58358 -1.86557 0 2.92455e-12 3.55013e-12 0 6.81478e-21 1.21918e-26
3526 118 0.0015 0.673499 -1.86561 0 -8.60235e-12 -6.80639e-12 0 1.57149e-20 6.02221e-26
2652 89 0.0015 -0.611842 -1.86351 0 2.12182e-13 -1.12657e-12 0 5.32605e-21 1.57315e-27
10310 344 0.0015 -0.515959 -1.86217 0 -4.1814e-12 4.73636e-13 0 1.68424e-20 7.25465e-27
10309 344 0.0015 -0.513134 -1.86307 0 2.5575e-12 8.51274e-13 0 1.68424e-20 2.52742e-27
10308 344 0.0015 -0.51031 -1.86398 0 -2.43634e-12 -6.68548e-13 0 1.68424e-20 2.36565e-27
6036 202 0.0015 -0.337434 -1.86244 0 -1.22382e-12 2.11409e-12 0 0 7.55083e-27
8008 267 0.0015 -0.257673 -1.8626 0 5.83534e-12 -5.47452e-14 0 0 1.03671e-26
8007 267 0.0015 -0.255347 -1.86348 0 -3.30389e-12 -3.6259e-13 0 0 5.44532e-27
10334 345 0.0015 -0.0693181 -1.86288 0 -1.7412e-12 4.02363e-12 0 1.57149e-20 1.64848e-26
1958 66 0.0015 0.0122775 -1.86393 0 -8.14686e-14 7.44531e-13 0 0 4.12015e-27
1484 50 0.0015 0.585807 -1.86266 0 -1.09175e-12 -1.75637e-12 0 6.81478e-21 2.53288e-27
3525 118 0.0015 0.676036 -1.86369 0 8.60235e-12 6.80639e-12 0 1.57149e-20 6.02221e-26
2653 89 0.0015 -0.615563 -1.86065 0 1.97719e-12 -1.47459e-12 0 0 6.62617e-27
10312 344 0.0015 -0.521607 -1.86035 0 -6.17522e-12 2.83942e-12 0 1.68424e-20 1.89493e-26
10311 344 0.0015 -0.518783 -1.86126 0 5.86857e-12 -1.87097e-12 0 1.68424e-20 1.62937e-26
8010 267 0.0015 -0.262324 -1.86085 0 6.60759e-13 3.84038e-13 0 0 1.60606e-28
8009 267 0.0015 -0.259998 -1.86172 0 -3.61546e-12 -6.37142e-13 0 0 5.09978e-27
8047 269 0.0015 0.151313 -1.86021 0 -1.13841e-13 1.70531e-12 0 0 4.37332e-27
10271 343 0.0015 0.424893 -1.86133 0 -1.32828e-12 -7.70942e-12 0 0 3.69761e-26
3524 118 0.0015 0.678573 -1.86178 0 4.78028e-13 2.2319e-13 0 3.14298e-20 2.47376e-26
10314 344 0.0015 -0.527255 -1.85854 0 2.72546e-12 1.22432e-12 0 0 2.10925e-27
10313 344 0.0015 -0.524431 -1.85944 0 1.1463e-12 -2.0088e-12 0 0 9.03749e-27
10335 345 0.0015 -0.0699949 -1.85978 0 2.46442e-13 3.11865e-12 0 1.57149e-20 7.82285e-27
1959 66 0.0015 0.0117974 -1.85915 0 -3.08132e-13 3.31103e-12 0 0 9.31396e-27
4771 160 0.0015 0.0785585 -1.85825 0 2.14385e-14 -7.39328e-13 0 0 1.39822e-27
10204 341 0.0015 0.287705 -1.85857 0 -3.14176e-13 2.21085e-12 0 0 6.37561e-27
6005 201 0.0015 0.502997 -1.85945 0 1.26166e-12 3.04841e-12 0 0 1.36296e-26
1485 50 0.0015 0.588033 -1.85975 0 -5.19946e-13 8.48805e-13 0 0 4.25235e-28
3523 118 0.0015 0.681111 -1.85986 0 -5.91402e-12 -4.11909e-12 0 3.14298e-20 2.31711e-26
2654 89 0.0015 -0.619284 -1.8578 0 -2.16152e-12 2.37882e-12 0 0 7.66164e-27
10316 344 0.0015 -0.532903 -1.85672 0 4.88726e-12 1.13002e-13 0 1.68424e-20 1.0382e-26
10315 344 0.0015 -0.530079 -1.85763 0 -2.73549e-12 -1.2636e-12 0 0 2.10378e-27
8013 268 0.0015 -0.167482 -1.85688 0 2.69545e-13 7.45358e-13 0 0 2.63722e-27
10336 345 0.0015 -0.0706718 -1.85667 0 -1.10626e-13 -1.70168e-12 0 0 9.40142e-27
4533 152 0.0015 0.36352 -1.85607 0 -5.35514e-14 2.61174e-13 0 5.72705e-21 1.33797e-27
10272 343 0.0015 0.425614 -1.85738 0 1.18492e-12 7.78704e-12 0 0 3.7295e-26
1486 50 0.0015 0.59026 -1.85684 0 5.19946e-13 -8.48805e-13 0 0 4.25235e-28
3522 118 0.0015 0.683648 -1.85795 0 5.54083e-12 2.9129e-12 0 1.57149e-20 1.68746e-26
3521 118 0.0015 0.686185 -1.85603 0 -5.24269e-12 -1.19398e-12 0 0 1.10856e-26
2655 89 0.0015 -0.623004 -1.85494 0 3.65476e-13 -1.17562e-12 0 0 1.10953e-27
10318 344 0.0015 -0.538552 -1.85491 0 2.16145e-12 -1.97974e-12 0 1.68424e-20 3.50355e-27
10317 344 0.0015 -0.535727 -1.85581 0 -5.07777e-12 1.25487e-12 0 1.68424e-20 1.19889e-26
6037 202 0.0015 -0.342237 -1.85471 0 1.1111e-12 -1.90995e-12 0 0 6.18974e-27
1960 66 0.0015 0.0113172 -1.85437 0 4.24153e-13 -4.70975e-12 0 0 1.49756e-26
3520 118 0.0015 0.688722 -1.85412 0 3.2642e-13 -3.16373e-12 0 0 1.46452e-26
2656 89 0.0015 -0.626725 -1.85209 0 -6.73661e-13 1.21937e-12 0 0 1.85436e-27
10320 344 0.0015 -0.5442 -1.85309 0 2.74504e-12 -1.45697e-12 0 0 7.71105e-27
10319 344 0.0015 -0.541376 -1.854 0 -3.15313e-12 2.5996e-12 0 0 8.15988e-27
10337 345 0.0015 -0.0713486 -1.85356 0 1.7125e-13 -2.06815e-12 0 0 2.03675e-27
8048 269 0.0015 0.150617 -1.85348 0 -1.08264e-13 4.39893e-13 0 0 8.55168e-28
10273 343 0.0015 0.426335 -1.85342 0 -4.43364e-13 -3.23037e-12 0 0 9.22002e-27
1487 50 0.0015 0.592486 -1.85392 0 1.09175e-12 1.75637e-12 0 6.81478e-21 2.53288e-27
3519 118 0.0015 0.69126 -1.8522 0 2.53205e-12 3.70861e-12 0 1.57149e-20 1.17332e-26
10338 345 0.0015 -0.0720254 -1.85046 0 1.35864e-12 -2.33337e-12 0 0 1.0012e-26
10205 341 0.0015 0.286904 -1.85184 0 2.03918e-13 -1.18346e-12 0 0 6.64648e-27
6006 201 0.0015 0.506013 -1.85168 0 -4.81855e-13 -1.00493e-12 0 0 3.20897e-27
1488 50 0.0015 0.594712 -1.85101 0 -2.92455e-12 -3.55013e-12 0 6.81478e-21 1.21918e-26
3518 118 0.0015 0.693797 -1.85028 0 7.28265e-13 1.41346e-12 0 3.14298e-20 4.31647e-27
2657 89 0.0015 -0.630446 -1.84923 0 -1.51299e-13 -1.76131e-13 0 0 3.72901e-27
1961 66 0.0015 0.0108371 -1.84959 0 -4.11183e-14 1.03543e-12 0 5.20104e-21 8.3934e-27
4772 160 0.0015 0.0782973 -1.84905 0 -3.25126e-14 1.06544e-12 0 0 1.67034e-27
10274 343 0.0015 0.427056 -1.84946 0 2.29488e-13 2.67969e-13 0 0 2.05535e-28
1489 50 0.0015 0.596939 -1.8481 0 2.54243e-12 3.87807e-12 0 6.81478e-21 1.22771e-26
3517 118 0.0015 0.696334 -1.84837 0 -6.49348e-13 -2.49624e-12 0 4.71447e-20 3.92262e-27
2658 89 0.0015 -0.634167 -1.84638 0 1.79019e-12 -1.51761e-12 0 0 3.5819e-27
6038 202 0.0015 -0.34704 -1.84697 0 -3.08133e-13 5.78196e-13 0 0 3.10592e-27
10339 345 0.0015 -0.0727023 -1.84735 0 -2.67255e-12 7.64995e-12 0 0 2.95157e-26
8049 269 0.0015 0.149922 -1.84674 0 -5.84915e-14 1.13693e-12 0 0 6.75761e-27
6541 219 0.0015 0.213251 -1.84656 0 4.54123e-14 -5.93998e-13 0 0 7.00787e-28
4534 152 0.0015 0.362172 -1.84745 0 8.32291e-15 -5.76743e-15 0 1.14541e-20 6.94775e-28
3516 118 0.0015 0.698871 -1.84645 0 -6.54868e-13 9.66434e-13 0 4.71447e-20 2.43013e-29
8014 268 0.0015 -0.163039 -1.84452 0 -1.75465e-13 -4.88949e-13 0 0 3.02063e-27
10340 345 0.0015 -0.0733791 -1.84424 0 2.01657e-12 -5.41164e-12 0 0 2.07797e-26
1962 66 0.0015 0.010357 -1.84481 0 -4.39832e-13 3.87116e-12 0 5.20104e-21 1.17e-26
10206 341 0.0015 0.286103 -1.84511 0 3.03084e-13 -3.03151e-12 0 0 1.20336e-26
10275 343 0.0015 0.427777 -1.84551 0 -4.24682e-13 1.66774e-13 0 0 1.40223e-29
1490 50 0.0015 0.599165 -1.84519 0 9.24482e-13 -2.9545e-13 0 0 5.60266e-27
3515 118 0.0015 0.701409 -1.84454 0 -1.99299e-13 -1.29293e-12 0 3.14298e-20 5.76029e-28
2659 89 0.0015 -0.637888 -1.84352 0 -1.20382e-12 1.01755e-12 0 5.32605e-21 1.94177e-27
6007 201 0.0015 0.509028 -1.84391 0 1.93863e-13 3.09208e-13 0 0 4.23517e-28
1491 50 0.0015 0.601391 -1.84228 0 -2.09617e-12 -1.18506e-12 0 0 3.51395e-27
3514 118 0.0015 0.703946 -1.84262 0 -5.33263e-14 1.01205e-12 0 1.57149e-20 6.03655e-28
2660 89 0.0015 -0.641609 -1.84066 0 1.37406e-12 -4.95242e-13 0 5.32605e-21 1.44134e-27
10341 345 0.0015 -0.074056 -1.84114 0 -1.03995e-13 -1.16876e-12 0 1.57149e-20 4.64743e-27
1963 66 0.0015 0.00987681 -1.84004 0 2.54702e-13 -2.3763e-12 0 5.20104e-21 9.98664e-27
10276 343 0.0015 0.428498 -1.84155 0 4.24682e-13 -1.66774e-13 0 0 1.40223e-29
3513 118 0.0015 0.706483 -1.84071 0 2.48495e-12 1.65376e-12 0 0 6.73424e-27
6039 202 0.0015 -0.351842 -1.83924 0 -6.45582e-13 1.02876e-12 0 2.74394e-21 2.11419e-27
10342 345 0.0015 -0.0747328 -1.83803 0 3.98716e-13 -3.46519e-12 0 1.57149e-20 3.10603e-26
4773 160 0.0015 0.0780361 -1.83985 0 1.17925e-14 -2.43084e-13 0 0 2.89716e-28
8050 269 0.0015 0.149226 -1.84 0 4.73984e-13 -4.92895e-12 0 3.6872e-21 2.48825e-26
6542 219 0.0015 0.21269 -1.83947 0 -4.38224e-14 4.68647e-13 0 0 7.31678e-28
10207 341 0.0015 0.285302 -1.83839 0 -3.02293e-13 2.6025e-12 0 0 1.14351e-26
4535 152 0.0015 0.360823 -1.83883 0 -1.25769e-13 8.47297e-13 0 1.71811e-20 8.99261e-28
1492 50 0.0015 0.603618 -1.83936 0 1.05115e-13 -7.36466e-13 0 0 1.02859e-27
3512 118 0.0015 0.70902 -1.83879 0 -7.11956e-12 -5.74923e-12 0 0 4.27937e-26
2661 89 0.0015 -0.64533 -1.83781 0 -2.15152e-13 -8.56421e-13 0 5.32605e-21 3.43006e-27
10277 343 0.0015 0.429219 -1.8376 0 -2.29488e-13 -2.67969e-13 0 0 2.05535e-28
6008 201 0.0015 0.512043 -1.83614 0 -3.7361e-13 -8.23676e-13 0 0 9.47645e-28
1493 50 0.0015 0.605844 -1.83645 0 1.06084e-12 8.41873e-13 0 0 1.02112e-27
3511 118 0.0015 0.711558 -1.83688 0 5.01391e-12 3.97082e-12 0 0 3.61052e-26
2662 89 0.0015 -0.649051 -1.83495 0 -2.87244e-12 2.95852e-12 0 0 1.22346e-26
10343 345 0.0015 -0.0754097 -1.83493 0 -6.06976e-13 6.03224e-12 0 1.57149e-20 2.74263e-26
1964 66 0.0015 0.00939668 -1.83526 0 3.2977e-13 -3.17313e-12 0 0 1.10829e-26
2663 89 0.0015 -0.652772 -1.8321 0 4.40198e-12 -3.64351e-12 0 0 2.12599e-26
10171 340 0.0015 -0.234195 -1.83312 0 -5.54671e-13 8.33635e-13 0 0 2.17561e-27
8015 268 0.0015 -0.158597 -1.83216 0 1.33201e-13 3.84868e-13 0 0 2.37185e-27
8051 269 0.0015 0.14853 -1.83326 0 -3.51948e-13 3.43196e-12 0 1.47488e-20 1.90554e-26
6543 219 0.0015 0.212128 -1.83239 0 -3.83628e-14 7.35563e-13 0 0 7.6858e-28
10278 343 0.0015 0.429939 -1.83364 0 4.43364e-13 3.23037e-12 0 0 9.22002e-27
1494 50 0.0015 0.60807 -1.83354 0 -2.96186e-12 -1.90661e-12 0 0 8.85106e-27
6040 202 0.0015 -0.356645 -1.83151 0 4.48305e-13 -7.37838e-13 0 5.48788e-21 1.74162e-27
10344 345 0.0015 -0.0760865 -1.83182 0 -1.62579e-12 5.88384e-12 0 0 3.82591e-26
1965 66 0.0015 0.00891654 -1.83048 0 -2.29593e-13 2.05214e-12 0 0 1.1792e-26
4774 160 0.0015 0.0777749 -1.83066 0 9.11228e-15 -5.594e-13 0 0 5.9782e-28
10208 341 0.0015 0.284501 -1.83166 0 1.23966e-13 -6.20204e-13 0 0 4.646e-28
4536 152 0.0015 0.359475 -1.83021 0 3.77825e-14 -3.98765e-13 0 1.14541e-20 5.58966e-28
1495 50 0.0015 0.610297 -1.83063 0 4.58612e-12 3.90512e-12 0 0 1.76495e-26
2664 89 0.0015 -0.656493 -1.82924 0 -2.01269e-12 1.45215e-12 0 0 1.15327e-26
10345 345 0.0015 -0.0767633 -1.82871 0 1.81335e-12 -8.91981e-12 0 0 4.37439e-26
10279 343 0.0015 0.43066 -1.82968 0 -1.18492e-12 -7.78704e-12 0 0 3.7295e-26
6009 201 0.0015 0.515058 -1.82837 0 2.41534e-13 5.42732e-13 0 0 5.63385e-28
2665 89 0.0015 -0.660213 -1.82639 0 -2.40605e-12 2.32507e-12 0 0 1.09713e-26
10172 340 0.0015 -0.238704 -1.82673 0 6.58348e-13 -1.07896e-12 0 0 2.32266e-27
8052 269 0.0015 0.147835 -1.82652 0 -7.95679e-14 8.60342e-13 0 1.8436e-20 2.61147e-27
1496 50 0.0015 0.612523 -1.82772 0 -1.99148e-12 -1.75101e-12 0 6.81478e-21 9.0899e-27
10346 345 0.0015 -0.0774402 -1.82561 0 1.07557e-13 1.88795e-13 0 0 1.06593e-26
1966 66 0.0015 0.0084364 -1.8257 0 -8.52469e-15 3.49039e-13 0 0 1.12239e-27
6544 219 0.0015 0.211567 -1.8253 0 -5.61316e-14 5.69788e-13 0 0 3.50427e-27
10209 341 0.0015 0.2837 -1.82493 0 -3.83519e-13 2.63379e-12 0 0 9.44462e-27
10280 343 0.0015 0.431381 -1.82573 0 1.32828e-12 7.70942e-12 0 0 3.69761e-26
1497 50 0.0015 0.614749 -1.8248 0 -4.94996e-13 -2.33545e-13 0 6.81478e-21 1.50562e-28
2666 89 0.0015 -0.663934 -1.82353 0 2.09178e-12 -2.22119e-12 0 0 1.07248e-26
6041 202 0.0015 -0.361448 -1.82377 0 1.40572e-13 -2.52461e-13 0 8.23182e-21 2.66374e-28
10347 345 0.0015 -0.078117 -1.8225 0 -1.05779e-12 5.24272e-12 0 0 1.27857e-26
2667 89 0.0015 -0.667655 -1.82068 0 8.80269e-13 -2.84928e-13 0 0 1.37832e-27
10173 340 0.0015 -0.243212 -1.82034 0 9.52009e-14 4.17739e-14 0 0 3.18498e-28
1967 66 0.0015 0.00795626 -1.82092 0 1.20167e-14 -2.41717e-13 0 0 9.10593e-28
4775 160 0.0015 0.0775136 -1.82146 0 -2.43125e-14 1.07976e-12 0 0 1.51126e-27
4537 152 0.0015 0.358127 -1.82159 0 1.24539e-13 -5.91892e-13 0 5.72705e-21 6.92618e-28
10281 343 0.0015 0.432102 -1.82177 0 -7.85788e-13 -4.09497e-12 0 0 1.0828e-26
6010 201 0.0015 0.518074 -1.8206 0 -2.8059e-13 -6.63229e-13 0 5.99535e-21 8.81541e-28
1498 50 0.0015 0.616976 -1.82189 0 -5.08308e-13 -5.70402e-13 0 6.81478e-21 8.09141e-28
8016 268 0.0015 -0.154154 -1.81981 0 -5.57841e-13 -1.56345e-12 0 1.90242e-21 5.0894e-27
10348 345 0.0015 -0.0787939 -1.81939 0 1.22621e-15 -4.93187e-13 0 0 1.32864e-26
8053 269 0.0015 0.147139 -1.81978 0 9.71684e-14 -9.1737e-13 0 1.8436e-20 2.55618e-27
6545 219 0.0015 0.211005 -1.81821 0 1.48643e-13 -1.84356e-12 0 0 3.64218e-27
10210 341 0.0015 0.282899 -1.8182 0 4.25867e-13 -3.05102e-12 0 0 1.05178e-26
1499 50 0.0015 0.619202 -1.81898 0 -9.87948e-13 -2.4122e-12 0 0 1.25613e-26
2668 89 0.0015 -0.671376 -1.81782 0 -1.02855e-12 5.35973e-13 0 0 1.37052e-27
6042 202 0.0015 -0.366251 -1.81604 0 -1.07014e-13 2.52709e-13 0 5.48788e-21 2.70168e-28
10349 345 0.0015 -0.0794707 -1.81629 0 7.67439e-13 -3.7073e-12 0 0 6.96009e-27
1968 66 0.0015 0.00747613 -1.81614 0 -3.30965e-13 3.21206e-12 0 0 9.22417e-27
10282 343 0.0015 0.432823 -1.81781 0 6.77201e-14 7.10419e-13 0 0 2.61473e-27
1500 50 0.0015 0.621428 -1.81607 0 1.76489e-12 2.92988e-12 0 0 1.17671e-26
2669 89 0.0015 -0.675097 -1.81497 0 7.52227e-14 1.39849e-13 0 0 4.92536e-29
5941 199 0.0015 0.740778 -1.81551 0 -2.99033e-13 -1.19501e-12 0 0 4.04887e-27
2670 89 0.0015 -0.678818 -1.81211 0 8.67819e-14 -1.32691e-13 0 0 2.91685e-29
10174 340 0.0015 -0.24772 -1.81396 0 -4.60469e-13 5.26854e-13 0 6.39056e-21 5.45436e-28
10350 345 0.0015 -0.0801475 -1.81318 0 -2.29523e-13 1.27502e-12 0 0 1.48015e-27
4776 160 0.0015 0.0772524 -1.81226 0 4.40196e-14 -1.67043e-12 0 0 3.84337e-27
8054 269 0.0015 0.146443 -1.81304 0 3.15429e-14 -4.68552e-13 0 7.37441e-21 2.07878e-28
4538 152 0.0015 0.356779 -1.81297 0 -4.99193e-13 3.06083e-12 0 5.72705e-21 1.67066e-26
10283 343 0.0015 0.433544 -1.81386 0 9.69122e-13 4.26087e-12 0 1.24237e-20 1.57827e-26
6011 201 0.0015 0.521089 -1.81283 0 8.33673e-13 2.13632e-12 0 5.99535e-21 7.43625e-27
1969 66 0.0015 0.00699599 -1.81136 0 1.3433e-13 -1.1378e-12 0 0 1.11664e-26
6546 219 0.0015 0.210443 -1.81113 0 -8.30363e-14 8.98893e-13 0 3.51396e-21 9.86282e-28
10211 341 0.0015 0.282098 -1.81148 0 -3.04924e-13 2.247e-12 0 0 5.06105e-27
6043 202 0.0015 -0.371054 -1.8083 0 -5.25442e-13 7.31725e-13 0 2.74394e-21 1.82175e-27
10284 343 0.0015 0.434265 -1.8099 0 -8.4564e-13 -3.90119e-12 0 2.48474e-20 1.5381e-26
10175 340 0.0015 -0.252228 -1.80757 0 1.5398e-12 -2.0882e-12 0 6.39056e-21 1.06847e-26
8017 268 0.0015 -0.149712 -1.80745 0 -6.20808e-15 -1.49519e-14 0 3.80484e-21 6.3346e-27
1970 66 0.0015 0.00651585 -1.80658 0 1.49711e-13 -1.64641e-12 0 0 2.6734e-27
8055 269 0.0015 0.145748 -1.8063 0 -1.52042e-14 3.52895e-13 0 3.6872e-21 1.36124e-28
5942 199 0.0015 0.743061 -1.80618 0 4.03935e-13 1.55921e-12 0 0 4.43154e-27
6547 219 0.0015 0.209882 -1.80404 0 6.84149e-14 -7.47817e-13 0 3.51396e-21 6.32658e-28
10212 341 0.0015 0.281297 -1.80475 0 2.73304e-13 -2.35415e-12 0 0 5.42466e-27
4539 152 0.0015 0.35543 -1.80435 0 6.6201e-13 -4.24379e-12 0 5.72705e-21 2.32238e-26