ITEM: TIMESTEP
79120
ITEM: NUMBER OF ATOMS
10500
ITEM: BOX BOUNDS pp pp pp
-1.0249999999999999e+00 1.0249999999999999e+00
-2.0000000000000000e+00 2.0000000000000000e+00
-5.0000000000000003e-02 5.0000000000000003e-02
ITEM: ATOMS id type radius x y z fx fy fz c_bendingE c_stretchingE
10321 345 0.0015 -0.0605191 -1.90326 0 7.86843e-13 -1.70469e-12 0 0 2.96749e-27
6031 202 0.0015 -0.31342 -1.90111 0 1.41926e-12 -2.28462e-12 0 0 1.82929e-26
10322 345 0.0015 -0.061196 -1.90016 0 -3.65927e-12 1.18793e-11 0 0 1.01313e-25
8041 269 0.0015 0.155487 -1.90065 0 -6.62488e-14 5.67139e-13 0 3.6872e-21 6.13444e-28
10261 343 0.0015 0.417684 -1.90089 0 9.206e-13 4.19158e-12 0 0 2.05457e-26
1471 50 0.0015 0.556864 -1.90052 0 1.69204e-12 1.95687e-12 0 6.81478e-21 6.78955e-27
10323 345 0.0015 -0.0618728 -1.89705 0 4.3261e-12 -1.56963e-11 0 0 1.27084e-25
1951 66 0.0015 0.0156385 -1.89738 0 -2.04934e-13 2.10069e-12 0 0 5.94335e-27
10262 343 0.0015 0.418405 -1.89694 0 -2.12862e-12 -9.72699e-12 0 0 5.63599e-26
1472 50 0.0015 0.559091 -1.8976 0 -3.26039e-12 -3.81934e-12 0 6.81478e-21 1.28125e-26
2641 89 0.0015 -0.570912 -1.89491 0 1.66339e-12 -1.05515e-12 0 5.32605e-21 5.01505e-27
1473 50 0.0015 0.561317 -1.89469 0 1.62428e-12 2.11246e-12 0 6.81478e-21 6.07806e-27
2642 89 0.0015 -0.574633 -1.89206 0 -2.13204e-12 1.23016e-12 0 5.32605e-21 5.31316e-27
6032 202 0.0015 -0.318223 -1.89337 0 -1.89316e-12 3.0532e-12 0 0 2.03546e-26
10324 345 0.0015 -0.0625496 -1.89394 0 -2.1579e-12 8.97614e-12 0 0 3.97126e-26
1952 66 0.0015 0.0151583 -1.8926 0 3.99261e-13 -4.2699e-12 0 0 1.22707e-26
8042 269 0.0015 0.154791 -1.89391 0 -1.26933e-14 3.0774e-13 0 7.37441e-21 2.06535e-27
10263 343 0.0015 0.419126 -1.89298 0 2.67373e-12 1.32863e-11 0 0 1.05319e-25
3540 118 0.0015 0.637977 -1.89243 0 -7.5495e-12 -5.71425e-12 0 0 7.91673e-26
6061 203 0.0015 -0.387409 -1.89062 0 -5.8609e-12 4.96e-12 0 0 3.07603e-26
10325 345 0.0015 -0.0632265 -1.89084 0 2.54924e-12 -1.27036e-11 0 0 8.95021e-26
10231 342 0.0015 0.215 -1.89 0 2.42058e-12 0 0 0 1.12246e-27
10232 342 0.0015 0.21569 -1.89 0 -3.33278e-12 0 0 0 1.28171e-27
10233 342 0.0015 0.216379 -1.89 0 1.73861e-12 0 0 0 2.90227e-28
10234 342 0.0015 0.217069 -1.89 0 -3.51322e-12 0 0 0 1.51368e-27
10235 342 0.0015 0.217759 -1.89 0 7.89619e-12 0 0 0 6.58193e-27
10236 342 0.0015 0.218448 -1.89 0 -8.87415e-12 0 0 0 7.77182e-27
10237 342 0.0015 0.219138 -1.89 0 8.11351e-12 0 0 0 6.3644e-27
10238 342 0.0015 0.219828 -1.89 0 -1.18443e-11 0 0 0 1.4269e-26
10239 342 0.0015 0.220517 -1.89 0 1.65892e-11 0 0 0 2.66703e-26
10240 342 0.0015 0.221207 -1.89 0 -1.87981e-11 0 0 0 3.38659e-26
10241 342 0.0015 0.221897 -1.89 0 1.93056e-11 0 0 0 3.57015e-26
10242 342 0.0015 0.222586 -1.89 0 -2.137e-11 0 0 0 4.41158e-26
10243 342 0.0015 0.223276 -1.89 0 2.36519e-11 0 0 0 5.35949e-26
10244 342 0.0015 0.223966 -1.89 0 -2.34352e-11 0 0 0 5.26323e-26
10245 342 0.0015 0.224655 -1.89 0 2.24933e-11 0 0 0 4.84785e-26
10246 342 0.0015 0.225345 -1.89 0 -2.24933e-11 0 0 0 4.84785e-26
10247 342 0.0015 0.226034 -1.89 0 2.34352e-11 0 0 0 5.26323e-26
10248 342 0.0015 0.226724 -1.89 0 -2.36519e-11 0 0 0 5.35949e-26
10249 342 0.0015 0.227414 -1.89 0 2.137e-11 0 0 0 4.41158e-26
10250 342 0.0015 0.228103 -1.89 0 -1.93056e-11 0 0 0 3.57015e-26
10251 342 0.0015 0.228793 -1.89 0 1.87981e-11 0 0 0 3.38659e-26
10252 342 0.0015 0.229483 -1.89 0 -1.65892e-11 0 0 0 2.66703e-26
10253 342 0.0015 0.230172 -1.89 0 1.18443e-11 0 0 0 1.4269e-26
10254 342 0.0015 0.230862 -1.89 0 -8.11351e-12 0 0 0 6.3644e-27
10255 342 0.0015 0.231552 -1.89 0 8.87415e-12 0 0 0 7.77182e-27
10256 342 0.0015 0.232241 -1.89 0 -7.89619e-12 0 0 0 6.58193e-27
10257 342 0.0015 0.232931 -1.89 0 3.51322e-12 0 0 0 1.51368e-27
10258 342 0.0015 0.233621 -1.89 0 -1.73861e-12 0 0 0 2.90227e-28
10259 342 0.0015 0.23431 -1.89 0 3.33278e-12 0 0 0 1.28171e-27
10260 342 0.0015 0.235 -1.89 0 -2.42058e-12 0 0 0 1.12246e-27
6001 201 0.0015 0.490936 -1.89052 0 -2.15289e-13 -5.6337e-13 0 0 8.41931e-28
1474 50 0.0015 0.563543 -1.89178 0 -2.36729e-12 -2.91853e-12 0 6.81478e-21 1.26982e-26
3539 118 0.0015 0.640514 -1.89051 0 1.2654e-11 9.38386e-12 0 1.57149e-20 1.1405e-25
2643 89 0.0015 -0.578354 -1.8892 0 -9.91698e-13 7.63883e-13 0 5.32605e-21 4.19792e-27
6063 203 0.0015 -0.391043 -1.8889 0 -1.25934e-11 3.73102e-12 0 0 4.74135e-26
6064 203 0.0015 -0.392859 -1.88804 0 1.52324e-11 6.20596e-12 0 2.48474e-20 3.45574e-26
6062 203 0.0015 -0.389226 -1.88976 0 1.13913e-11 -9.80913e-12 0 0 5.87182e-26
10264 343 0.0015 0.419847 -1.88903 0 -2.54397e-12 -1.35448e-11 0 0 1.083e-25
1475 50 0.0015 0.56577 -1.88887 0 3.33327e-12 3.26151e-12 0 1.36296e-20 1.38567e-26
3538 118 0.0015 0.643052 -1.8886 0 -4.94331e-12 -3.51883e-12 0 3.14298e-20 3.49257e-26
2644 89 0.0015 -0.582074 -1.88635 0 3.6119e-12 -2.28744e-12 0 0 1.2225e-26
6066 203 0.0015 -0.396492 -1.88631 0 1.2623e-11 1.35461e-13 0 2.48474e-20 3.98473e-26
6065 203 0.0015 -0.394676 -1.88717 0 -1.72553e-11 -6.64748e-12 0 2.48474e-20 4.68581e-26
7981 267 0.0015 -0.194876 -1.88635 0 -3.22459e-12 1.85221e-12 0 0 9.30985e-27
10326 345 0.0015 -0.0639033 -1.88773 0 -1.39714e-12 8.45484e-12 0 0 7.91986e-26
1953 66 0.0015 0.0146782 -1.88782 0 -3.63591e-13 4.11226e-12 0 0 1.14016e-26
8043 269 0.0015 0.154095 -1.88717 0 3.68692e-13 -3.57595e-12 0 7.37441e-21 1.53395e-26
3537 118 0.0015 0.645589 -1.88668 0 -3.72413e-12 -2.71507e-12 0 3.14298e-20 1.70511e-26
6068 203 0.0015 -0.400126 -1.88459 0 1.32242e-12 -8.30342e-12 0 0 6.73071e-27
6067 203 0.0015 -0.398309 -1.88545 0 -4.66188e-12 6.02802e-12 0 0 1.30831e-26
6033 202 0.0015 -0.323025 -1.88564 0 5.85708e-13 -9.83785e-13 0 0 2.20954e-27
7983 267 0.0015 -0.199527 -1.8846 0 4.42561e-12 4.51422e-12 0 0 3.02862e-27
7982 267 0.0015 -0.197202 -1.88548 0 4.40777e-13 -3.47326e-12 0 0 1.21573e-26
10327 345 0.0015 -0.0645802 -1.88463 0 -1.67143e-12 4.65894e-12 0 0 1.50594e-26
10265 343 0.0015 0.420568 -1.88507 0 1.15857e-12 6.71528e-12 0 1.24237e-20 3.97433e-26
1476 50 0.0015 0.567996 -1.88596 0 1.81664e-12 3.11203e-12 0 1.36296e-20 2.33948e-26
3536 118 0.0015 0.648126 -1.88476 0 5.32923e-12 4.71154e-12 0 3.14298e-20 2.34628e-26
2645 89 0.0015 -0.585795 -1.88349 0 -3.68421e-12 2.00619e-12 0 0 1.17287e-26
6071 203 0.0015 -0.405575 -1.882 0 -1.77926e-11 1.34246e-12 0 0 8.26859e-26
6070 203 0.0015 -0.403759 -1.88287 0 1.47611e-11 5.35257e-13 0 0 6.53379e-26
6069 203 0.0015 -0.401942 -1.88373 0 -3.36462e-12 3.11502e-12 0 0 5.54547e-27
7985 267 0.0015 -0.204179 -1.88284 0 -2.68187e-13 -1.89514e-12 0 0 1.32015e-28
7984 267 0.0015 -0.201853 -1.88372 0 -1.88382e-12 -3.58191e-12 0 0 1.81404e-28
1954 66 0.0015 0.0141981 -1.88304 0 7.08151e-13 -7.17362e-12 0 0 4.1962e-26
6002 201 0.0015 0.493952 -1.88275 0 -5.52565e-13 -1.39713e-12 0 0 1.11035e-26
1477 50 0.0015 0.570222 -1.88304 0 -1.68754e-12 -1.97866e-12 0 6.81478e-21 2.65463e-26
3535 118 0.0015 0.650663 -1.88285 0 2.47443e-12 -3.16486e-13 0 1.57149e-20 2.42384e-26
2646 89 0.0015 -0.589516 -1.88064 0 -3.0677e-13 1.27781e-12 0 0 1.24668e-26
6073 203 0.0015 -0.409209 -1.88028 0 -1.72921e-12 7.00747e-12 0 0 9.91964e-27
6072 203 0.0015 -0.407392 -1.88114 0 5.14699e-12 -4.36739e-12 0 0 2.12304e-26
7988 267 0.0015 -0.211156 -1.8802 0 8.64798e-12 -3.46432e-12 0 1.00459e-20 3.016e-26
7987 267 0.0015 -0.208831 -1.88108 0 -8.12982e-12 2.14817e-13 0 0 2.06361e-26
7986 267 0.0015 -0.206505 -1.88196 0 4.59838e-12 3.77724e-12 0 0 8.12421e-27
8011 268 0.0015 -0.176367 -1.88159 0 6.77121e-13 1.87574e-12 0 0 1.45053e-26
10328 345 0.0015 -0.065257 -1.88152 0 1.90907e-12 -5.49197e-12 0 0 1.70501e-26
8044 269 0.0015 0.1534 -1.88043 0 -6.1772e-13 5.54357e-12 0 3.6872e-21 2.92931e-26
10266 343 0.0015 0.421289 -1.88111 0 9.10424e-13 3.51033e-12 0 1.24237e-20 2.39466e-26
1478 50 0.0015 0.572449 -1.88013 0 -5.61446e-12 -6.94362e-12 0 0 5.22213e-26
3534 118 0.0015 0.653201 -1.88093 0 -7.96163e-12 -4.3598e-12 0 1.57149e-20 3.56151e-26
10292 344 0.0015 -0.465124 -1.8785 0 -1.13384e-12 -2.41735e-12 0 1.68424e-20 6.42998e-28
10291 344 0.0015 -0.4623 -1.87941 0 1.0008e-12 5.94151e-13 0 1.68424e-20 4.89892e-28
6074 203 0.0015 -0.411025 -1.87942 0 5.89185e-12 -6.28958e-12 0 2.48474e-20 1.79979e-26
6075 203 0.0015 -0.412842 -1.87856 0 -2.4825e-13 6.75088e-12 0 4.96948e-20 8.42983e-27
7990 267 0.0015 -0.215808 -1.87844 0 2.66644e-12 3.94309e-14 0 3.01377e-20 9.53842e-27
7989 267 0.0015 -0.213482 -1.87932 0 -8.19755e-12 2.615e-12 0 3.01377e-20 2.62541e-26
10329 345 0.0015 -0.0659339 -1.87841 0 -1.88262e-12 6.96639e-12 0 0 2.90988e-26
1955 66 0.0015 0.0137179 -1.87827 0 -8.06049e-13 7.25738e-12 0 5.20104e-21 4.24582e-26
10201 341 0.0015 0.290108 -1.87875 0 1.4782e-13 -1.44578e-12 0 0 3.97362e-27
3533 118 0.0015 0.655738 -1.87902 0 4.0289e-12 3.69548e-12 0 1.57149e-20 1.86257e-26
2647 89 0.0015 -0.593237 -1.87778 0 8.12947e-12 -6.5811e-12 0 0 8.86995e-26
10294 344 0.0015 -0.470773 -1.87669 0 -1.24264e-12 -2.55367e-12 0 0 1.36807e-27
10293 344 0.0015 -0.467948 -1.87759 0 1.69594e-12 3.12538e-12 0 1.68424e-20 1.1314e-27
6077 203 0.0015 -0.416475 -1.87683 0 -7.87451e-12 7.14297e-12 0 2.48474e-20 3.04442e-26
6076 203 0.0015 -0.414658 -1.87769 0 -2.01822e-12 -1.17581e-11 0 4.96948e-20 8.85615e-27
6034 202 0.0015 -0.327828 -1.87791 0 -5.3415e-13 9.58659e-13 0 0 1.99387e-27
7992 267 0.0015 -0.22046 -1.87668 0 5.05117e-12 -4.46452e-13 0 0 1.48304e-26
7991 267 0.0015 -0.218134 -1.87756 0 8.03891e-13 -1.94638e-13 0 2.00918e-20 8.45863e-28
10267 343 0.0015 0.42201 -1.87716 0 -1.63427e-12 -8.0929e-12 0 1.24237e-20 3.84342e-26
1479 50 0.0015 0.574675 -1.87722 0 4.98242e-12 5.01794e-12 0 0 4.78812e-26
3532 118 0.0015 0.658275 -1.8771 0 1.9471e-12 -3.81253e-13 0 1.57149e-20 5.35686e-27
2648 89 0.0015 -0.596958 -1.87493 0 -1.17309e-11 8.05786e-12 0 0 1.32896e-25
10296 344 0.0015 -0.476421 -1.87487 0 -1.5238e-12 4.56707e-15 0 1.68424e-20 1.73972e-27
10295 344 0.0015 -0.473597 -1.87578 0 1.13155e-12 1.01985e-12 0 0 2.12949e-27
6080 203 0.0015 -0.421925 -1.87425 0 1.04735e-11 2.11885e-11 0 0 2.24711e-27
6079 203 0.0015 -0.420108 -1.87511 0 -1.62868e-11 -2.00346e-11 0 0 1.28903e-26
6078 203 0.0015 -0.418291 -1.87597 0 1.6337e-11 9.26649e-12 0 0 3.33322e-26
7995 267 0.0015 -0.227437 -1.87404 0 1.64822e-12 1.98723e-12 0 1.00459e-20 3.29376e-27
7994 267 0.0015 -0.225111 -1.87492 0 5.30317e-12 9.58336e-13 0 1.00459e-20 9.51299e-27
7993 267 0.0015 -0.222785 -1.8758 0 -9.25539e-12 -1.34505e-12 0 0 2.35122e-26
10330 345 0.0015 -0.0666107 -1.87531 0 2.09522e-12 -1.07024e-11 0 1.57149e-20 5.24906e-26
6003 201 0.0015 0.496967 -1.87498 0 1.71966e-12 4.42658e-12 0 5.99535e-21 2.64359e-26
1480 50 0.0015 0.576901 -1.87431 0 -2.5342e-12 -2.14576e-12 0 0 9.7281e-27
3531 118 0.0015 0.660812 -1.87519 0 -6.5596e-12 -3.87584e-12 0 3.14298e-20 2.93462e-26
2649 89 0.0015 -0.600679 -1.87207 0 6.82484e-12 -3.92051e-12 0 0 5.58401e-26
10299 344 0.0015 -0.484893 -1.87215 0 1.80632e-12 1.22479e-12 0 1.68424e-20 8.91187e-28
10298 344 0.0015 -0.482069 -1.87306 0 7.79367e-13 -2.17771e-12 0 1.68424e-20 2.73594e-27
10297 344 0.0015 -0.479245 -1.87396 0 -1.36096e-12 1.59662e-12 0 1.68424e-20 2.62007e-27
6082 203 0.0015 -0.425558 -1.87252 0 2.01109e-11 7.92353e-12 0 2.48474e-20 6.20693e-26
6081 203 0.0015 -0.423741 -1.87338 0 -1.30419e-11 -1.54284e-11 0 0 2.35964e-26
7997 267 0.0015 -0.232089 -1.87228 0 2.00049e-12 1.81999e-12 0 0 6.49808e-27
7996 267 0.0015 -0.229763 -1.87316 0 -5.80089e-12 -2.33655e-12 0 1.00459e-20 7.52026e-27
10331 345 0.0015 -0.0672875 -1.8722 0 -1.28147e-12 9.43014e-12 0 1.57149e-20 4.05753e-26
1956 66 0.0015 0.0132378 -1.87349 0 2.27318e-13 -8.6253e-13 0 5.20104e-21 7.37318e-27
8045 269 0.0015 0.152704 -1.87369 0 5.3788e-13 -4.57206e-12 0 0 2.1116e-26
10202 341 0.0015 0.289307 -1.87202 0 -6.7398e-13 6.26419e-12 0 0 4.81824e-26
4531 152 0.0015 0.366216 -1.8733 0 -2.33046e-14 1.17723e-13 0 0 3.48418e-29
10268 343 0.0015 0.422731 -1.8732 0 9.80455e-13 6.68995e-12 0 0 2.5759e-26
3530 118 0.0015 0.66335 -1.87327 0 6.88597e-12 5.45119e-12 0 1.57149e-20 3.54946e-26
10301 344 0.0015 -0.490541 -1.87033 0 1.27505e-12 2.57988e-12 0 1.68424e-20 1.98838e-28
10300 344 0.0015 -0.487717 -1.87124 0 -1.4402e-12 -1.5156e-12 0 1.68424e-20 7.7853e-28
6084 203 0.0015 -0.429191 -1.8708 0 9.88376e-12 6.34756e-12 0 2.48474e-20 1.45013e-26
6083 203 0.0015 -0.427374 -1.87166 0 -1.76375e-11 -6.09772e-12 0 2.48474e-20 5.28903e-26
6035 202 0.0015 -0.332631 -1.87017 0 7.99026e-13 -1.38344e-12 0 0 3.2398e-27
7999 267 0.0015 -0.23674 -1.87052 0 -1.56763e-12 -2.69132e-12 0 2.00918e-20 3.81749e-27
7998 267 0.0015 -0.234415 -1.8714 0 3.3087e-12 -7.66735e-13 0 1.00459e-20 3.97765e-27
1481 50 0.0015 0.579128 -1.8714 0 4.58499e-12 5.56319e-12 0 0 2.69639e-26
3529 118 0.0015 0.665887 -1.87136 0 -3.37494e-12 -2.91026e-12 0 1.57149e-20 1.1532e-26
2650 89 0.0015 -0.6044 -1.86922 0 -4.61603e-13 -3.22423e-13 0 0 4.57569e-27
10303 344 0.0015 -0.49619 -1.86852 0 6.01906e-12 -8.79192e-13 0 0 1.48295e-26
10302 344 0.0015 -0.493366 -1.86943 0 -4.2142e-12 -1.65522e-12 0 0 7.70372e-27
6087 203 0.0015 -0.434641 -1.86821 0 7.73354e-12 5.05982e-12 0 4.96948e-20 6.72034e-27
6085 203 0.0015 -0.431008 -1.86994 0 1.55613e-13 -2.05445e-12 0 2.48474e-20 3.85597e-27
6086 203 0.0015 -0.432824 -1.86908 0 -7.88516e-12 -4.56599e-12 0 2.48474e-20 7.54702e-27
8001 267 0.0015 -0.241392 -1.86876 0 1.78537e-13 -7.38271e-12 0 1.00459e-20 3.07416e-27
8000 267 0.0015 -0.239066 -1.86964 0 -1.34901e-12 5.81221e-12 0 2.00918e-20 3.90515e-27
8012 268 0.0015 -0.171924 -1.86923 0 -1.14471e-12 -3.16573e-12 0 0 2.13723e-26
10332 345 0.0015 -0.0679644 -1.86909 0 9.60493e-13 -9.93862e-12 0 1.57149e-20 4.48479e-26
1957 66 0.0015 0.0127576 -1.86871 0 -1.59791e-13 5.97644e-13 0 5.20104e-21 5.99696e-27
10269 343 0.0015 0.423451 -1.86924 0 -1.10659e-12 -7.59102e-12 0 1.24237e-20 3.42315e-26
1482 50 0.0015 0.581354 -1.86848 0 -1.67925e-12 -1.77176e-12 0 0 2.01685e-26
3528 118 0.0015 0.668424 -1.86944 0 6.9861e-13 -2.13051e-13 0 0 1.07455e-27
2651 89 0.0015 -0.608121 -1.86636 0 -2.08692e-12 1.78298e-12 0 0 4.94054e-27
10305 344 0.0015 -0.501838 -1.8667 0 -5.36286e-12 1.30445e-12 0 1.68424e-20 2.22561e-26
10304 344 0.0015 -0.499014 -1.86761 0 -2.29306e-12 1.57028e-12 0 0 7.40441e-27
6089 203 0.0015 -0.438274 -1.86649 0 1.40125e-12 -3.56332e-12 0 2.48474e-20 1.20804e-26
6088 203 0.0015 -0.436457 -1.86735 0 -8.04724e-13 -8.38018e-13 0 2.48474e-20 3.51549e-27
8004 267 0.0015 -0.248369 -1.86612 0 -3.18164e-14 5.37401e-13 0 1.00459e-20 2.90667e-27
8003 267 0.0015 -0.246044 -1.867 0 1.90258e-12 -4.32383e-12 0 1.00459e-20 3.79526e-27
8002 267 0.0015 -0.243718 -1.86788 0 -1.47084e-14 7.30772e-12 0 1.00459e-20 2.61665e-27
8046 269 0.0015 0.152008 -1.86695 0 2.29343e-14 -7.00647e-13 0 0 1.69262e-26
6004 201 0.0015 0.499982 -1.86721 0 -7.62646e-13 -2.06038e-12 0 5.99535e-21 1.66362e-26
3527 118 0.0015 0.670962 -1.86752 0 1.02296e-12 1.02415e-12 0 1.57149e-20 9.65495e-28
10307 344 0.0015 -0.507486 -1.86489 0 4.51759e-12 2.1044e-12 0 1.68424e-20 2.58152e-26
10306 344 0.0015 -0.504662 -1.8658 0 5.96541e-12 -3.88844e-12 0 1.68424e-20 2.45028e-26
6090 203 0.0015 -0.440091 -1.86563 0 -3.40975e-12 3.01713e-12 0 0 1.06852e-26
8006 267 0.0015 -0.253021 -1.86436 0 7.28039e-12 -4.77211e-12 0 1.00459e-20 2.49392e-26
8005 267 0.0015 -0.250695 -1.86524 0 -5.27407e-12 1.88618e-12 0 0 1.37912e-26
10333 345 0.0015 -0.0686412 -1.86599 0 -1.09816e-12 1.1518e-11 0 1.57149e-20 5.82939e-26
10203 341 0.0015 0.288506 -1.8653 0 8.997e-13 -8.30954e-12 0 3.6872e-21 6.74043e-26
4532 152 0.0015 0.364868 -1.86469 0 -5.32199e-13 3.50038e-12 0 5.72705e-21 3.25036e-26
10270 343 0.0015 0.424172 -1.86529 0 1.1658e-12 5.77003e-12 0 2.48474e-20 2.56787e-26
1483 50 0.0015 0.58358 -1.86557 0 -1.64644e-12 -1.69968e-12 0 0 3.35167e-27
3526 118 0.0015 0.673499 -1.86561 0 -2.34711e-12 2.96607e-13 0 3.14298e-20 1.27243e-27
2652 89 0.0015 -0.611842 -1.86351 0 3.21609e-12 -2.64192e-12 0 0 1.21374e-26
10310 344 0.0015 -0.515959 -1.86217 0 6.88159e-12 -2.3796e-12 0 0 2.25418e-26
10309 344 0.0015 -0.513134 -1.86307 0 8.0588e-13 7.17917e-13 0 0 1.76112e-26
10308 344 0.0015 -0.51031 -1.86398 0 -9.21367e-12 3.20886e-13 0 0 3.37611e-26
6036 202 0.0015 -0.337434 -1.86244 0 -1.33845e-12 2.1604e-12 0 0 9.57799e-27
8008 267 0.0015 -0.257673 -1.8626 0 9.93998e-13 -6.15217e-12 0 2.00918e-20 3.93547e-27
8007 267 0.0015 -0.255347 -1.86348 0 -4.08006e-12 7.43944e-12 0 2.00918e-20 1.57675e-26
10334 345 0.0015 -0.0693181 -1.86288 0 2.61951e-13 -6.25137e-12 0 1.57149e-20 2.82219e-26
1958 66 0.0015 0.0122775 -1.86393 0 4.88025e-13 -5.24891e-12 0 0 2.0522e-26
1484 50 0.0015 0.585807 -1.86266 0 -3.61006e-13 -3.87951e-12 0 0 1.64243e-26
3525 118 0.0015 0.676036 -1.86369 0 2.34711e-12 -2.96607e-13 0 3.14298e-20 1.27243e-27
2653 89 0.0015 -0.615563 -1.86065 0 -3.05222e-12 2.41066e-12 0 0 1.1172e-26
10312 344 0.0015 -0.521607 -1.86035 0 8.6025e-12 -1.32358e-12 0 0 3.10452e-26
10311 344 0.0015 -0.518783 -1.86126 0 -8.9075e-12 2.35748e-12 0 0 3.50363e-26
8010 267 0.0015 -0.262324 -1.86085 0 -9.13122e-13 1.76993e-13 0 0 5.80424e-28
8009 267 0.0015 -0.259998 -1.86172 0 7.40323e-13 1.88778e-12 0 1.00459e-20 1.13006e-27
8047 269 0.0015 0.151313 -1.86021 0 -5.37297e-14 7.27926e-13 0 3.6872e-21 1.67293e-26
10271 343 0.0015 0.424893 -1.86133 0 -6.7883e-13 -1.31198e-12 0 2.48474e-20 1.79753e-27
3524 118 0.0015 0.678573 -1.86178 0 -1.02296e-12 -1.02415e-12 0 1.57149e-20 9.65495e-28
10314 344 0.0015 -0.527255 -1.85854 0 -3.77027e-12 4.56898e-14 0 0 1.04272e-26
10313 344 0.0015 -0.524431 -1.85944 0 -3.81272e-12 4.19824e-14 0 0 1.12168e-26
10335 345 0.0015 -0.0699949 -1.85978 0 8.12766e-13 -2.40695e-12 0 1.57149e-20 8.52805e-27
1959 66 0.0015 0.0117974 -1.85915 0 -4.59521e-13 5.89621e-12 0 0 2.41039e-26
4771 160 0.0015 0.0785585 -1.85825 0 6.09205e-14 -2.07107e-12 0 0 1.09724e-26
10204 341 0.0015 0.287705 -1.85857 0 -3.7235e-13 3.70698e-12 0 3.6872e-21 2.32818e-26
6005 201 0.0015 0.502997 -1.85945 0 2.48392e-13 8.23243e-13 0 5.99535e-21 4.39777e-27
1485 50 0.0015 0.588033 -1.85975 0 4.48754e-12 1.22044e-11 0 0 8.88446e-26
3523 118 0.0015 0.681111 -1.85986 0 -6.9861e-13 2.13051e-13 0 0 1.07455e-27
2654 89 0.0015 -0.619284 -1.8578 0 7.50478e-13 -2.57206e-13 0 0 2.28129e-27
10316 344 0.0015 -0.532903 -1.85672 0 -1.03007e-11 7.42389e-13 0 0 4.42549e-26
10315 344 0.0015 -0.530079 -1.85763 0 1.0359e-11 -3.05119e-14 0 0 4.32822e-26
8013 268 0.0015 -0.167482 -1.85688 0 8.43816e-13 2.32804e-12 0 0 1.13135e-26
10336 345 0.0015 -0.0706718 -1.85667 0 -8.38143e-13 6.15028e-12 0 0 1.6908e-26
4533 152 0.0015 0.36352 -1.85607 0 9.1449e-13 -5.96395e-12 0 5.72705e-21 4.61157e-26
10272 343 0.0015 0.425614 -1.85738 0 5.93155e-13 5.70704e-13 0 1.24237e-20 3.22026e-28
1486 50 0.0015 0.59026 -1.85684 0 -4.48754e-12 -1.22044e-11 0 0 8.88446e-26
3522 118 0.0015 0.683648 -1.85795 0 3.37494e-12 2.91026e-12 0 1.57149e-20 1.1532e-26
3521 118 0.0015 0.686185 -1.85603 0 -6.88597e-12 -5.45119e-12 0 1.57149e-20 3.54946e-26
2655 89 0.0015 -0.623004 -1.85494 0 -6.80469e-13 -8.07897e-14 0 0 1.53085e-27
10318 344 0.0015 -0.538552 -1.85491 0 -4.19577e-12 3.024e-12 0 0 1.00947e-26
10317 344 0.0015 -0.535727 -1.85581 0 6.19948e-12 -1.79872e-12 0 0 1.75536e-26
6037 202 0.0015 -0.342237 -1.85471 0 1.49499e-12 -2.33471e-12 0 0 1.05786e-26
1960 66 0.0015 0.0113172 -1.85437 0 3.98413e-13 -4.64193e-12 0 0 1.44958e-26
3520 118 0.0015 0.688722 -1.85412 0 6.5596e-12 3.87584e-12 0 3.14298e-20 2.93462e-26
2656 89 0.0015 -0.626725 -1.85209 0 1.53995e-12 -5.75145e-13 0 0 1.69919e-27
10320 344 0.0015 -0.5442 -1.85309 0 -8.4576e-14 8.60329e-13 0 0 9.73311e-29
10319 344 0.0015 -0.541376 -1.854 0 1.8172e-12 -2.61547e-12 0 0 4.03655e-27
10337 345 0.0015 -0.0713486 -1.85356 0 -5.27396e-13 -9.71859e-13 0 0 1.32627e-26
8048 269 0.0015 0.150617 -1.85348 0 -6.31779e-13 6.23472e-12 0 3.6872e-21 4.45583e-26
10273 343 0.0015 0.426335 -1.85342 0 -8.87917e-15 2.208e-12 0 1.24237e-20 8.35043e-27
1487 50 0.0015 0.592486 -1.85392 0 3.61006e-13 3.87951e-12 0 0 1.64243e-26
3519 118 0.0015 0.69126 -1.8522 0 -1.9471e-12 3.81253e-13 0 1.57149e-20 5.35686e-27
10338 345 0.0015 -0.0720254 -1.85046 0 2.47118e-12 -9.2174e-12 0 0 5.09536e-26
10205 341 0.0015 0.286904 -1.85184 0 -1.54751e-13 9.67095e-13 0 3.6872e-21 2.76389e-27
6006 201 0.0015 0.506013 -1.85168 0 -7.08289e-13 -1.99568e-12 0 0 5.465e-27
1488 50 0.0015 0.594712 -1.85101 0 1.64644e-12 1.69968e-12 0 0 3.35167e-27
3518 118 0.0015 0.693797 -1.85028 0 -4.0289e-12 -3.69548e-12 0 1.57149e-20 1.86257e-26
2657 89 0.0015 -0.630446 -1.84923 0 -1.45856e-12 4.96661e-13 0 5.32605e-21 1.43124e-27
1961 66 0.0015 0.0108371 -1.84959 0 -8.03797e-13 7.22461e-12 0 0 4.0401e-26
4772 160 0.0015 0.0782973 -1.84905 0 -1.38439e-13 4.69793e-12 0 0 2.86244e-26
10274 343 0.0015 0.427056 -1.84946 0 -1.01149e-12 -7.4053e-12 0 2.48474e-20 3.35919e-26
1489 50 0.0015 0.596939 -1.8481 0 1.67925e-12 1.77176e-12 0 0 2.01685e-26
3517 118 0.0015 0.696334 -1.84837 0 7.96163e-12 4.3598e-12 0 1.57149e-20 3.56151e-26
2658 89 0.0015 -0.634167 -1.84638 0 1.35797e-12 -2.5021e-13 0 1.06521e-20 1.14051e-27
6038 202 0.0015 -0.34704 -1.84697 0 -3.71245e-13 5.24259e-13 0 0 2.67291e-27
10339 345 0.0015 -0.0727023 -1.84735 0 -2.25665e-12 1.00639e-11 0 0 5.46527e-26
8049 269 0.0015 0.149922 -1.84674 0 2.73244e-13 -2.96678e-12 0 3.6872e-21 4.37179e-26
6541 219 0.0015 0.213251 -1.84656 0 1.15469e-13 -1.36108e-12 0 0 3.68432e-27
4534 152 0.0015 0.362172 -1.84745 0 -5.81713e-14 3.7548e-13 0 5.72705e-21 2.3274e-26
3516 118 0.0015 0.698871 -1.84645 0 -2.47443e-12 3.16486e-13 0 1.57149e-20 2.42384e-26
8014 268 0.0015 -0.163039 -1.84452 0 -4.02092e-13 -1.0995e-12 0 0 4.46263e-27
10340 345 0.0015 -0.0733791 -1.84424 0 -3.50968e-13 6.44766e-13 0 0 2.09169e-26
1962 66 0.0015 0.010357 -1.84481 0 9.86748e-13 -8.04145e-12 0 0 4.62988e-26
10206 341 0.0015 0.286103 -1.84511 0 6.65331e-13 -5.34004e-12 0 3.6872e-21 3.56914e-26
10275 343 0.0015 0.427777 -1.84551 0 1.40217e-12 9.16873e-12 0 3.72711e-20 4.8059e-26
1490 50 0.0015 0.599165 -1.84519 0 -4.58499e-12 -5.56319e-12 0 0 2.69639e-26
3515 118 0.0015 0.701409 -1.84454 0 -5.32923e-12 -4.71154e-12 0 3.14298e-20 2.34628e-26
2659 89 0.0015 -0.637888 -1.84352 0 4.37644e-14 -6.24269e-13 0 1.06521e-20 9.82194e-28
6007 201 0.0015 0.509028 -1.84391 0 -9.01424e-13 -2.19625e-12 0 0 2.50302e-26
1491 50 0.0015 0.601391 -1.84228 0 2.5342e-12 2.14576e-12 0 0 9.7281e-27
3514 118 0.0015 0.703946 -1.84262 0 3.72413e-12 2.71507e-12 0 3.14298e-20 1.70511e-26
2660 89 0.0015 -0.641609 -1.84066 0 1.91947e-12 -1.6603e-12 0 5.32605e-21 1.51531e-26
10341 345 0.0015 -0.074056 -1.84114 0 1.3207e-12 -4.43942e-12 0 1.57149e-20 1.32167e-26
1963 66 0.0015 0.00987681 -1.84004 0 -6.26108e-13 4.22179e-12 0 5.20104e-21 1.45001e-26
10276 343 0.0015 0.428498 -1.84155 0 -1.40217e-12 -9.16873e-12 0 3.72711e-20 4.8059e-26
3513 118 0.0015 0.706483 -1.84071 0 4.94331e-12 3.51883e-12 0 3.14298e-20 3.49257e-26
6039 202 0.0015 -0.351842 -1.83924 0 1.95559e-13 -2.78062e-13 0 2.74394e-21 1.41785e-27
10342 345 0.0015 -0.0747328 -1.83803 0 -2.10354e-13 -1.34861e-12 0 1.57149e-20 4.58231e-27
4773 160 0.0015 0.0780361 -1.83985 0 1.3836e-13 -4.60678e-12 0 0 2.76805e-26
8050 269 0.0015 0.149226 -1.84 0 5.64307e-13 -5.19555e-12 0 0 2.97475e-26
6542 219 0.0015 0.21269 -1.83947 0 -2.01886e-13 2.3443e-12 0 0 5.60791e-27
10207 341 0.0015 0.285302 -1.83839 0 -8.88756e-13 7.19189e-12 0 3.6872e-21 5.06129e-26
4535 152 0.0015 0.360823 -1.83883 0 -8.5463e-13 5.62497e-12 0 0 4.27337e-26
1492 50 0.0015 0.603618 -1.83936 0 -4.98242e-12 -5.01794e-12 0 0 4.78812e-26
3512 118 0.0015 0.70902 -1.83879 0 -1.2654e-11 -9.38386e-12 0 1.57149e-20 1.1405e-25
2661 89 0.0015 -0.64533 -1.83781 0 -5.39531e-12 4.85066e-12 0 0 3.43131e-26
10277 343 0.0015 0.429219 -1.8376 0 1.01149e-12 7.4053e-12 0 2.48474e-20 3.35919e-26
6008 201 0.0015 0.512043 -1.83614 0 1.57103e-12 3.90286e-12 0 0 2.59119e-26
1493 50 0.0015 0.605844 -1.83645 0 5.61446e-12 6.94362e-12 0 0 5.22213e-26
3511 118 0.0015 0.711558 -1.83688 0 7.5495e-12 5.71425e-12 0 0 7.91673e-26
2662 89 0.0015 -0.649051 -1.83495 0 3.99421e-12 -3.67842e-12 0 5.32605e-21 2.28698e-26
10343 345 0.0015 -0.0754097 -1.83493 0 -5.41806e-13 5.19821e-12 0 1.57149e-20 1.23225e-26
1964 66 0.0015 0.00939668 -1.83526 0 5.2153e-13 -3.44739e-12 0 1.04021e-20 8.90545e-27
2663 89 0.0015 -0.652772 -1.8321 0 -3.60932e-12 3.26903e-12 0 1.06521e-20 1.7614e-26
10171 340 0.0015 -0.234195 -1.83312 0 -6.93736e-13 9.69401e-13 0 6.39056e-21 3.08576e-27
8015 268 0.0015 -0.158597 -1.83216 0 -3.9624e-13 -1.11639e-12 0 0 5.72617e-27
8051 269 0.0015 0.14853 -1.83326 0 -7.16126e-13 6.75099e-12 0 0 4.36127e-26
6543 219 0.0015 0.212128 -1.83239 0 1.56082e-13 -1.77457e-12 0 0 3.16966e-27
10278 343 0.0015 0.429939 -1.83364 0 8.87917e-15 -2.208e-12 0 1.24237e-20 8.35043e-27
1494 50 0.0015 0.60807 -1.83354 0 1.68754e-12 1.97866e-12 0 6.81478e-21 2.65463e-26
6040 202 0.0015 -0.356645 -1.83151 0 -5.11594e-13 8.54183e-13 0 2.74394e-21 1.40533e-27
10344 345 0.0015 -0.0760865 -1.83182 0 1.5131e-12 -8.84789e-12 0 0 3.89932e-26
1965 66 0.0015 0.00891654 -1.83048 0 -4.56743e-13 3.29103e-12 0 1.56031e-20 8.42684e-27
4774 160 0.0015 0.0777749 -1.83066 0 -1.46967e-13 4.70296e-12 0 0 2.8999e-26
10208 341 0.0015 0.284501 -1.83166 0 2.64937e-13 -2.08861e-12 0 3.6872e-21 1.93075e-26
4536 152 0.0015 0.359475 -1.83021 0 8.29077e-13 -5.37463e-12 0 0 4.04595e-26
1495 50 0.0015 0.610297 -1.83063 0 -1.81664e-12 -3.11203e-12 0 1.36296e-20 2.33948e-26
2664 89 0.0015 -0.656493 -1.82924 0 5.16386e-12 -4.61528e-12 0 1.06521e-20 3.10938e-26
10345 345 0.0015 -0.0767633 -1.82871 0 -1.30725e-12 6.62825e-12 0 0 3.1287e-26
10279 343 0.0015 0.43066 -1.82968 0 -5.93155e-13 -5.70704e-13 0 1.24237e-20 3.22026e-28
6009 201 0.0015 0.515058 -1.82837 0 8.48274e-14 4.13234e-13 0 0 7.18697e-27
2665 89 0.0015 -0.660213 -1.82639 0 -5.06726e-12 4.95004e-12 0 1.06521e-20 3.22281e-26
10172 340 0.0015 -0.238704 -1.82673 0 2.79725e-12 -3.85601e-12 0 6.39056e-21 3.07832e-26
8052 269 0.0015 0.147835 -1.82652 0 6.07974e-13 -5.75042e-12 0 0 3.16925e-26
1496 50 0.0015 0.612523 -1.82772 0 -3.33327e-12 -3.26151e-12 0 1.36296e-20 1.38567e-26
10346 345 0.0015 -0.0774402 -1.82561 0 1.24773e-12 -5.16164e-12 0 1.57149e-20 1.80964e-26
1966 66 0.0015 0.0084364 -1.8257 0 -3.32836e-13 3.99251e-12 0 1.04021e-20 3.51815e-26
6544 219 0.0015 0.211567 -1.8253 0 -9.46697e-14 9.01835e-13 0 0 1.2709e-27
10209 341 0.0015 0.2837 -1.82493 0 3.21574e-13 -2.64582e-12 0 0 7.22718e-27
10280 343 0.0015 0.431381 -1.82573 0 6.7883e-13 1.31198e-12 0 2.48474e-20 1.79753e-27
1497 50 0.0015 0.614749 -1.8248 0 2.36729e-12 2.91853e-12 0 6.81478e-21 1.26982e-26
2666 89 0.0015 -0.663934 -1.82353 0 3.77916e-12 -4.20062e-12 0 5.32605e-21 2.14153e-26
6041 202 0.0015 -0.361448 -1.82377 0 1.13291e-12 -1.91962e-12 0 2.74394e-21 9.4346e-27
10347 345 0.0015 -0.078117 -1.8225 0 -2.85652e-12 1.093e-11 0 3.14298e-20 5.88032e-26
2667 89 0.0015 -0.667655 -1.82068 0 -7.67673e-13 1.21168e-12 0 5.32605e-21 6.25203e-27
10173 340 0.0015 -0.243212 -1.82034 0 -3.77307e-12 5.14428e-12 0 6.39056e-21 4.48112e-26
1967 66 0.0015 0.00795626 -1.82092 0 3.84574e-13 -3.9873e-12 0 5.20104e-21 3.51815e-26
4775 160 0.0015 0.0775136 -1.82146 0 1.54493e-13 -4.92409e-12 0 0 3.13645e-26
4537 152 0.0015 0.358127 -1.82159 0 -2.40246e-13 1.24494e-12 0 0 7.89895e-27
10281 343 0.0015 0.432102 -1.82177 0 -1.1658e-12 -5.77003e-12 0 2.48474e-20 2.56787e-26
6010 201 0.0015 0.518074 -1.8206 0 -7.07919e-13 -1.92668e-12 0 5.99535e-21 5.65411e-27
1498 50 0.0015 0.616976 -1.82189 0 -1.62428e-12 -2.11246e-12 0 6.81478e-21 6.07806e-27
8016 268 0.0015 -0.154154 -1.81981 0 8.29268e-13 2.29992e-12 0 0 1.09068e-26
10348 345 0.0015 -0.0787939 -1.81939 0 1.13589e-12 -1.71168e-12 0 3.14298e-20 6.28326e-26
8053 269 0.0015 0.147139 -1.81978 0 -5.07713e-13 4.8408e-12 0 0 2.24581e-26
6545 219 0.0015 0.211005 -1.81821 0 7.4749e-14 -5.29321e-13 0 0 3.75571e-28
10210 341 0.0015 0.282899 -1.8182 0 2.53886e-14 -2.05725e-13 0 0 1.24545e-26
1499 50 0.0015 0.619202 -1.81898 0 3.26039e-12 3.81934e-12 0 6.81478e-21 1.28125e-26
2668 89 0.0015 -0.671376 -1.81782 0 -1.71207e-12 1.74737e-12 0 5.32605e-21 4.4452e-27
6042 202 0.0015 -0.366251 -1.81604 0 -2.71467e-12 4.44066e-12 0 0 3.67148e-26
10349 345 0.0015 -0.0794707 -1.81629 0 1.22399e-12 -8.4864e-12 0 1.57149e-20 3.30519e-26
1968 66 0.0015 0.00747613 -1.81614 0 7.56183e-13 -7.63843e-12 0 0 6.04004e-26
10282 343 0.0015 0.432823 -1.81781 0 1.10659e-12 7.59102e-12 0 1.24237e-20 3.42315e-26
1500 50 0.0015 0.621428 -1.81607 0 -1.69204e-12 -1.95687e-12 0 6.81478e-21 6.78955e-27
2669 89 0.0015 -0.675097 -1.81497 0 1.58416e-12 -1.86431e-12 0 5.32605e-21 4.38944e-27
5941 199 0.0015 0.740778 -1.81551 0 -6.86263e-14 -3.06324e-13 0 0 2.6283e-28
2670 89 0.0015 -0.678818 -1.81211 0 -4.41691e-13 5.60116e-13 0 5.32605e-21 6.22771e-28
10174 340 0.0015 -0.24772 -1.81396 0 2.17165e-12 -2.99544e-12 0 0 1.88427e-26
10350 345 0.0015 -0.0801475 -1.81318 0 -5.77207e-13 3.58163e-12 0 0 1.15878e-26
4776 160 0.0015 0.0772524 -1.81226 0 -9.56571e-14 3.21707e-12 0 0 1.50345e-26
8054 269 0.0015 0.146443 -1.81304 0 3.29636e-13 -3.10934e-12 0 0 1.08393e-26
4538 152 0.0015 0.356779 -1.81297 0 -8.64617e-14 9.97271e-13 0 0 1.21125e-27
10283 343 0.0015 0.433544 -1.81386 0 -9.80455e-13 -6.68995e-12 0 0 2.5759e-26
6011 201 0.0015 0.521089 -1.81283 0 9.27404e-16 -1.30189e-13 0 5.99535e-21 2.13472e-27
1969 66 0.0015 0.00699599 -1.81136 0 -9.49887e-13 9.6071e-12 0 0 7.10362e-26
6546 219 0.0015 0.210443 -1.81113 0 -6.91107e-14 5.09393e-13 0 0 3.67391e-28
10211 341 0.0015 0.282098 -1.81148 0 -8.33716e-13 6.48165e-12 0 3.6872e-21 4.70164e-26
6043 202 0.0015 -0.371054 -1.8083 0 1.42865e-12 -2.29857e-12 0 2.74394e-21 2.84386e-26
10284 343 0.0015 0.434265 -1.8099 0 1.63427e-12 8.0929e-12 0 1.24237e-20 3.84342e-26
10175 340 0.0015 -0.252228 -1.80757 0 -5.68841e-13 9.28495e-13 0 0 1.81096e-27
8017 268 0.0015 -0.149712 -1.80745 0 -3.79286e-13 -1.02924e-12 0 0 5.23099e-27
1970 66 0.0015 0.00651585 -1.80658 0 3.34424e-13 -3.69015e-12 0 0 1.26956e-26
8055 269 0.0015 0.145748 -1.8063 0 -1.01423e-13 8.4893e-13 0 0 1.53976e-27
5942 199 0.0015 0.743061 -1.80618 0 1.59936e-13 7.8563e-13 0 2.60052e-21 8.96369e-28