ITEM: TIMESTEP
78260
ITEM: NUMBER OF ATOMS
10500
ITEM: BOX BOUNDS pp pp pp
-1.0249999999999999e+00 1.0249999999999999e+00
-2.0000000000000000e+00 2.0000000000000000e+00
-5.0000000000000003e-02 5.0000000000000003e-02
ITEM: ATOMS id type radius x y z fx fy fz c_bendingE c_stretchingE
10321 345 0.0015 -0.0605191 -1.90326 0 -2.52207e-13 5.83369e-13 0 0 3.4351e-28
6031 202 0.0015 -0.31342 -1.90111 0 -2.02196e-12 3.30287e-12 0 0 3.79237e-26
10322 345 0.0015 -0.061196 -1.90016 0 2.73374e-13 -7.02912e-13 0 0 3.56503e-28
8041 269 0.0015 0.155487 -1.90065 0 -1.53042e-13 1.56677e-12 0 3.6872e-21 4.66354e-27
10261 343 0.0015 0.417684 -1.90089 0 -6.48349e-13 -3.1076e-12 0 0 1.12497e-26
1471 50 0.0015 0.556864 -1.90052 0 -3.12131e-13 -9.93823e-13 0 0 9.7608e-28
10323 345 0.0015 -0.0618728 -1.89705 0 8.31254e-13 -1.78083e-12 0 0 3.68186e-27
1951 66 0.0015 0.0156385 -1.89738 0 -4.4358e-13 4.24028e-12 0 0 2.42499e-26
10262 343 0.0015 0.418405 -1.89694 0 1.62027e-12 8.44787e-12 0 0 4.41612e-26
1472 50 0.0015 0.559091 -1.8976 0 5.01889e-12 8.51746e-12 0 0 8.04671e-26
2641 89 0.0015 -0.570912 -1.89491 0 -1.86707e-12 1.32584e-12 0 5.32605e-21 6.8224e-27
1473 50 0.0015 0.561317 -1.89469 0 -4.25698e-12 -8.77333e-12 0 0 8.00183e-26
2642 89 0.0015 -0.574633 -1.89206 0 1.56587e-12 -8.68347e-13 0 5.32605e-21 7.17125e-27
6032 202 0.0015 -0.318223 -1.89337 0 3.51592e-12 -5.79023e-12 0 2.74394e-21 5.92086e-26
10324 345 0.0015 -0.0625496 -1.89394 0 -1.22575e-12 1.75785e-12 0 0 3.67203e-27
1952 66 0.0015 0.0151583 -1.8926 0 1.25313e-12 -1.19063e-11 0 0 1.03527e-25
8042 269 0.0015 0.154791 -1.89391 0 4.4852e-14 -5.96327e-13 0 3.6872e-21 6.45772e-27
10263 343 0.0015 0.419126 -1.89298 0 -2.06724e-12 -1.26458e-11 0 0 9.38093e-26
3540 118 0.0015 0.637977 -1.89243 0 -3.00014e-12 -1.96616e-12 0 0 1.13122e-26
6061 203 0.0015 -0.387409 -1.89062 0 1.28941e-12 -3.3928e-12 0 0 3.83176e-27
10325 345 0.0015 -0.0632265 -1.89084 0 -1.1655e-12 7.3654e-12 0 0 4.81644e-26
10231 342 0.0015 0.215 -1.89 0 -1.09286e-12 0 0 0 2.288e-28
10232 342 0.0015 0.21569 -1.89 0 3.91165e-12 0 0 0 1.75118e-27
10233 342 0.0015 0.216379 -1.89 0 -6.15758e-12 0 0 0 3.65763e-27
10234 342 0.0015 0.217069 -1.89 0 5.07117e-12 0 0 0 2.71018e-27
10235 342 0.0015 0.217759 -1.89 0 -1.52151e-12 0 0 0 5.83471e-28
10236 342 0.0015 0.218448 -1.89 0 1.3044e-12 0 0 0 4.48269e-28
10237 342 0.0015 0.219138 -1.89 0 -3.69477e-12 0 0 0 1.34972e-27
10238 342 0.0015 0.219828 -1.89 0 4.23786e-12 0 0 0 1.72166e-27
10239 342 0.0015 0.220517 -1.89 0 -7.96863e-13 0 0 0 1.11653e-27
10240 342 0.0015 0.221207 -1.89 0 -2.28215e-12 0 0 0 5.0434e-28
10241 342 0.0015 0.221897 -1.89 0 -5.79315e-13 0 0 0 6.89863e-28
10242 342 0.0015 0.222586 -1.89 0 2.86146e-12 0 0 0 7.95259e-28
10243 342 0.0015 0.223276 -1.89 0 -1.44885e-13 0 0 0 5.43729e-28
10244 342 0.0015 0.223966 -1.89 0 -2.86146e-12 0 0 0 8.22089e-28
10245 342 0.0015 0.224655 -1.89 0 2.78946e-12 0 0 0 7.92101e-28
10246 342 0.0015 0.225345 -1.89 0 -2.78946e-12 0 0 0 7.92101e-28
10247 342 0.0015 0.226034 -1.89 0 2.86146e-12 0 0 0 8.22089e-28
10248 342 0.0015 0.226724 -1.89 0 1.44885e-13 0 0 0 5.43729e-28
10249 342 0.0015 0.227414 -1.89 0 -2.86146e-12 0 0 0 7.95259e-28
10250 342 0.0015 0.228103 -1.89 0 5.79315e-13 0 0 0 6.89863e-28
10251 342 0.0015 0.228793 -1.89 0 2.28215e-12 0 0 0 5.0434e-28
10252 342 0.0015 0.229483 -1.89 0 7.96863e-13 0 0 0 1.11653e-27
10253 342 0.0015 0.230172 -1.89 0 -4.23786e-12 0 0 0 1.72166e-27
10254 342 0.0015 0.230862 -1.89 0 3.69477e-12 0 0 0 1.34972e-27
10255 342 0.0015 0.231552 -1.89 0 -1.3044e-12 0 0 0 4.48269e-28
10256 342 0.0015 0.232241 -1.89 0 1.52151e-12 0 0 0 5.83471e-28
10257 342 0.0015 0.232931 -1.89 0 -5.07117e-12 0 0 0 2.71018e-27
10258 342 0.0015 0.233621 -1.89 0 6.15758e-12 0 0 0 3.65763e-27
10259 342 0.0015 0.23431 -1.89 0 -3.91165e-12 0 0 0 1.75118e-27
10260 342 0.0015 0.235 -1.89 0 1.09286e-12 0 0 0 2.288e-28
6001 201 0.0015 0.490936 -1.89052 0 -1.45578e-13 -3.54689e-13 0 0 3.40131e-28
1474 50 0.0015 0.563543 -1.89178 0 -2.72005e-12 6.07734e-13 0 0 4.16004e-27
3539 118 0.0015 0.640514 -1.89051 0 5.12015e-12 4.0927e-12 0 0 1.91193e-26
2643 89 0.0015 -0.578354 -1.8892 0 2.01712e-12 -2.1113e-12 0 1.06521e-20 7.6549e-27
6063 203 0.0015 -0.391043 -1.8889 0 4.02946e-12 -2.89608e-12 0 0 8.1931e-27
6064 203 0.0015 -0.392859 -1.88804 0 1.14374e-12 -4.38844e-12 0 0 1.06664e-26
6062 203 0.0015 -0.389226 -1.88976 0 -3.53062e-12 7.10041e-12 0 0 1.11271e-26
10264 343 0.0015 0.419847 -1.88903 0 1.84634e-12 1.27216e-11 0 0 9.42344e-26
1475 50 0.0015 0.56577 -1.88887 0 2.33875e-12 -1.1743e-12 0 0 5.63216e-27
3538 118 0.0015 0.643052 -1.8886 0 1.91441e-12 -1.55994e-12 0 0 1.90071e-26
2644 89 0.0015 -0.582074 -1.88635 0 -4.82829e-12 4.36883e-12 0 1.06521e-20 2.94424e-26
6066 203 0.0015 -0.396492 -1.88631 0 6.86482e-12 -1.64769e-11 0 0 5.00886e-26
6065 203 0.0015 -0.394676 -1.88717 0 -6.35733e-12 9.6775e-12 0 0 2.79766e-26
7981 267 0.0015 -0.194876 -1.88635 0 -2.74069e-12 9.64541e-13 0 0 5.8277e-27
10326 345 0.0015 -0.0639033 -1.88773 0 1.38983e-12 -6.06564e-12 0 1.57149e-20 4.93544e-26
1953 66 0.0015 0.0146782 -1.88782 0 -1.50468e-12 1.43738e-11 0 0 1.39949e-25
8043 269 0.0015 0.154095 -1.88717 0 -1.67389e-13 1.716e-12 0 3.6872e-21 1.55185e-26
3537 118 0.0015 0.645589 -1.88668 0 -9.8727e-12 -2.14448e-12 0 0 3.89951e-26
6068 203 0.0015 -0.400126 -1.88459 0 4.85432e-12 -6.25192e-12 0 2.48474e-20 1.62117e-26
6067 203 0.0015 -0.398309 -1.88545 0 -3.07883e-12 1.60524e-11 0 0 3.43606e-26
6033 202 0.0015 -0.323025 -1.88564 0 -2.20808e-12 3.68915e-12 0 2.74394e-21 2.6225e-26
7983 267 0.0015 -0.199527 -1.8846 0 -7.91277e-13 -9.70427e-13 0 0 3.98575e-28
7982 267 0.0015 -0.197202 -1.88548 0 2.60028e-12 -4.85685e-13 0 0 5.89018e-27
10327 345 0.0015 -0.0645802 -1.88463 0 1.66728e-12 -8.92867e-12 0 1.57149e-20 5.65378e-26
10265 343 0.0015 0.420568 -1.88507 0 -2.97265e-13 -3.88034e-12 0 0 3.61683e-26
1476 50 0.0015 0.567996 -1.88596 0 3.62302e-13 3.0125e-12 0 0 3.49498e-27
3536 118 0.0015 0.648126 -1.88476 0 1.0007e-11 3.45421e-12 0 0 4.53426e-26
2645 89 0.0015 -0.585795 -1.88349 0 7.48289e-12 -6.19721e-12 0 1.06521e-20 6.28062e-26
6071 203 0.0015 -0.405575 -1.882 0 3.02243e-12 -3.58327e-13 0 0 2.70601e-27
6070 203 0.0015 -0.403759 -1.88287 0 6.60162e-12 5.02245e-12 0 2.48474e-20 2.13392e-26
6069 203 0.0015 -0.401942 -1.88373 0 -1.28174e-11 -1.82589e-12 0 2.48474e-20 3.27748e-26
7985 267 0.0015 -0.204179 -1.88284 0 6.70185e-13 4.80804e-13 0 1.00459e-20 1.80287e-27
7984 267 0.0015 -0.201853 -1.88372 0 1.86454e-12 4.39418e-13 0 0 8.84381e-28
1954 66 0.0015 0.0141981 -1.88304 0 6.55455e-13 -6.32068e-12 0 5.20104e-21 6.08739e-26
6002 201 0.0015 0.493952 -1.88275 0 2.54227e-13 6.27241e-13 0 0 5.3939e-28
1477 50 0.0015 0.570222 -1.88304 0 1.21495e-13 -4.56932e-13 0 0 2.36261e-27
3535 118 0.0015 0.650663 -1.88285 0 -7.52376e-12 -4.75971e-12 0 0 3.47603e-26
2646 89 0.0015 -0.589516 -1.88064 0 -7.08127e-12 5.67484e-12 0 5.32605e-21 5.64965e-26
6073 203 0.0015 -0.409209 -1.88028 0 -9.74615e-12 -2.56943e-12 0 0 1.88066e-26
6072 203 0.0015 -0.407392 -1.88114 0 3.30687e-13 -2.9933e-12 0 0 3.7311e-27
7988 267 0.0015 -0.211156 -1.8802 0 5.64082e-12 -4.72318e-12 0 1.00459e-20 1.91402e-26
7987 267 0.0015 -0.208831 -1.88108 0 -5.56541e-12 5.99154e-12 0 2.00918e-20 2.03544e-26
7986 267 0.0015 -0.206505 -1.88196 0 7.46794e-14 -3.09813e-12 0 2.00918e-20 5.61839e-27
8011 268 0.0015 -0.176367 -1.88159 0 -7.87119e-14 -2.20108e-13 0 1.90242e-21 1.99308e-28
10328 345 0.0015 -0.065257 -1.88152 0 -1.95511e-12 1.1233e-11 0 1.57149e-20 6.60098e-26
8044 269 0.0015 0.1534 -1.88043 0 6.97889e-13 -6.79945e-12 0 3.6872e-21 4.58954e-26
10266 343 0.0015 0.421289 -1.88111 0 -9.62541e-13 -3.46687e-12 0 1.24237e-20 7.26018e-27
1478 50 0.0015 0.572449 -1.88013 0 -1.60705e-12 -1.98124e-12 0 0 3.56314e-27
3534 118 0.0015 0.653201 -1.88093 0 2.27068e-12 3.06853e-12 0 1.57149e-20 1.77146e-26
10292 344 0.0015 -0.465124 -1.8785 0 -7.93527e-12 6.8147e-12 0 0 3.87809e-26
10291 344 0.0015 -0.4623 -1.87941 0 3.62732e-12 -2.66838e-12 0 0 1.50213e-26
6074 203 0.0015 -0.411025 -1.87942 0 1.2607e-11 5.92031e-12 0 0 2.26714e-26
6075 203 0.0015 -0.412842 -1.87856 0 -1.02604e-11 7.15113e-13 0 0 2.72231e-26
7990 267 0.0015 -0.215808 -1.87844 0 4.14997e-12 -1.54065e-13 0 0 5.3517e-27
7989 267 0.0015 -0.213482 -1.87932 0 -3.67324e-12 1.96567e-12 0 0 5.90054e-27
10329 345 0.0015 -0.0659339 -1.87841 0 2.42583e-12 -1.42054e-11 0 0 1.15991e-25
1955 66 0.0015 0.0137179 -1.87827 0 -9.99593e-15 -2.11723e-13 0 5.20104e-21 2.44945e-28
10201 341 0.0015 0.290108 -1.87875 0 6.05193e-14 -4.59962e-13 0 0 4.04981e-28
3533 118 0.0015 0.655738 -1.87902 0 7.91802e-12 3.5646e-12 0 3.14298e-20 5.30419e-26
2647 89 0.0015 -0.593237 -1.87778 0 2.9273e-12 -2.58004e-12 0 0 1.60431e-26
10294 344 0.0015 -0.470773 -1.87669 0 -1.06161e-11 6.45528e-12 0 1.68424e-20 6.24848e-26
10293 344 0.0015 -0.467948 -1.87759 0 1.05514e-11 -8.36279e-12 0 1.68424e-20 6.68784e-26
6077 203 0.0015 -0.416475 -1.87683 0 -6.50024e-12 9.33413e-12 0 0 3.01174e-26
6076 203 0.0015 -0.414658 -1.87769 0 9.60231e-12 -9.00538e-12 0 0 4.39692e-26
6034 202 0.0015 -0.327828 -1.87791 0 2.61269e-12 -4.27749e-12 0 2.74394e-21 3.79772e-26
7992 267 0.0015 -0.22046 -1.87668 0 4.23182e-12 -1.27493e-13 0 0 5.77768e-27
7991 267 0.0015 -0.218134 -1.87756 0 -5.03181e-12 -9.75588e-13 0 0 6.64889e-27
10267 343 0.0015 0.42201 -1.87716 0 3.93428e-14 -5.17008e-13 0 2.48474e-20 1.13693e-26
1479 50 0.0015 0.574675 -1.87722 0 1.22234e-12 1.18483e-12 0 0 2.69938e-27
3532 118 0.0015 0.658275 -1.8771 0 -8.30868e-12 -3.07218e-12 0 3.14298e-20 5.30622e-26
2648 89 0.0015 -0.596958 -1.87493 0 5.35925e-13 -4.57665e-14 0 5.32605e-21 1.1815e-27
10296 344 0.0015 -0.476421 -1.87487 0 -2.96724e-12 -3.08225e-12 0 0 1.46395e-27
10295 344 0.0015 -0.473597 -1.87578 0 5.72815e-12 -1.26746e-12 0 1.68424e-20 2.01789e-26
6080 203 0.0015 -0.421925 -1.87425 0 1.0361e-11 -8.90299e-12 0 0 5.33038e-26
6079 203 0.0015 -0.420108 -1.87511 0 -5.08222e-12 6.69692e-12 0 0 1.62325e-26
6078 203 0.0015 -0.418291 -1.87597 0 3.76379e-12 -6.71194e-12 0 0 1.10446e-26
7995 267 0.0015 -0.227437 -1.87404 0 -1.38873e-12 8.11526e-12 0 2.00918e-20 6.79132e-27
7994 267 0.0015 -0.225111 -1.87492 0 -2.85384e-12 -5.39024e-12 0 1.00459e-20 4.24696e-27
7993 267 0.0015 -0.222785 -1.8758 0 1.34456e-12 2.11258e-12 0 0 4.75442e-27
10330 345 0.0015 -0.0666107 -1.87531 0 -3.78617e-12 1.94896e-11 0 0 1.75715e-25
6003 201 0.0015 0.496967 -1.87498 0 -2.82042e-13 -7.57729e-13 0 0 8.13281e-28
1480 50 0.0015 0.576901 -1.87431 0 -1.06759e-13 2.58166e-13 0 0 4.26265e-29
3531 118 0.0015 0.660812 -1.87519 0 -1.10427e-12 -4.20331e-12 0 1.57149e-20 1.59731e-26
2649 89 0.0015 -0.600679 -1.87207 0 2.09463e-13 -6.96197e-14 0 5.32605e-21 2.45442e-27
10299 344 0.0015 -0.484893 -1.87215 0 7.46974e-12 -2.50239e-12 0 0 2.62653e-26
10298 344 0.0015 -0.482069 -1.87306 0 -3.9336e-12 -5.1473e-13 0 0 8.97201e-27
10297 344 0.0015 -0.479245 -1.87396 0 2.3984e-12 3.57308e-12 0 0 7.25906e-28
6082 203 0.0015 -0.425558 -1.87252 0 1.28509e-11 -6.43457e-12 0 0 5.80977e-26
6081 203 0.0015 -0.423741 -1.87338 0 -1.2255e-11 9.67527e-12 0 0 6.59283e-26
7997 267 0.0015 -0.232089 -1.87228 0 -1.3703e-12 -8.8097e-13 0 2.00918e-20 3.26432e-28
7996 267 0.0015 -0.229763 -1.87316 0 1.58834e-12 -5.10684e-12 0 2.00918e-20 5.7108e-27
10331 345 0.0015 -0.0672875 -1.8722 0 2.38408e-12 -9.33288e-12 0 0 7.08204e-26
1956 66 0.0015 0.0132378 -1.87349 0 3.98681e-13 -3.0017e-12 0 5.20104e-21 1.08573e-26
8045 269 0.0015 0.152704 -1.87369 0 -6.34847e-13 6.16618e-12 0 3.6872e-21 4.01891e-26
10202 341 0.0015 0.289307 -1.87202 0 -3.33799e-13 2.84428e-12 0 0 1.12438e-26
4531 152 0.0015 0.366216 -1.8733 0 -8.38173e-14 5.76695e-13 0 0 8.22848e-28
10268 343 0.0015 0.422731 -1.8732 0 9.15792e-13 3.67644e-12 0 2.48474e-20 8.79499e-27
3530 118 0.0015 0.66335 -1.87327 0 4.49288e-12 5.60269e-12 0 0 2.22696e-26
10301 344 0.0015 -0.490541 -1.87033 0 -4.89029e-12 9.32238e-13 0 0 1.56933e-26
10300 344 0.0015 -0.487717 -1.87124 0 -3.75255e-12 1.29832e-12 0 0 1.76864e-26
6084 203 0.0015 -0.429191 -1.8708 0 8.77843e-12 9.15943e-12 0 0 2.01345e-26
6083 203 0.0015 -0.427374 -1.87166 0 -1.56382e-11 -1.32697e-12 0 0 5.25416e-26
6035 202 0.0015 -0.332631 -1.87017 0 -2.70485e-12 4.37529e-12 0 0 3.89521e-26
7999 267 0.0015 -0.23674 -1.87052 0 2.5007e-12 -5.52956e-12 0 2.00918e-20 7.35796e-27
7998 267 0.0015 -0.234415 -1.8714 0 1.192e-12 5.37075e-12 0 2.00918e-20 1.35643e-27
1481 50 0.0015 0.579128 -1.8714 0 8.84178e-13 6.00304e-13 0 0 1.53158e-27
3529 118 0.0015 0.665887 -1.87136 0 -5.93877e-12 -4.58998e-12 0 0 2.65479e-26
2650 89 0.0015 -0.6044 -1.86922 0 -3.67689e-12 1.98979e-12 0 5.32605e-21 1.36817e-26
10303 344 0.0015 -0.49619 -1.86852 0 -4.49e-12 2.72255e-12 0 0 1.10116e-26
10302 344 0.0015 -0.493366 -1.86943 0 7.2029e-12 -1.35974e-12 0 0 2.25647e-26
6087 203 0.0015 -0.434641 -1.86821 0 -1.42742e-14 -1.42175e-12 0 0 3.63631e-26
6085 203 0.0015 -0.431008 -1.86994 0 -5.8798e-12 -5.44611e-12 0 0 1.41301e-26
6086 203 0.0015 -0.432824 -1.86908 0 1.01262e-11 -2.262e-12 0 0 2.87202e-26
8001 267 0.0015 -0.241392 -1.86876 0 7.12063e-12 -8.90353e-13 0 0 1.84736e-26
8000 267 0.0015 -0.239066 -1.86964 0 -7.10598e-12 2.63917e-12 0 1.00459e-20 2.07219e-26
8012 268 0.0015 -0.171924 -1.86923 0 1.50018e-13 4.26712e-13 0 1.90242e-21 3.73508e-28
10332 345 0.0015 -0.0679644 -1.86909 0 -2.23122e-12 4.77052e-12 0 0 1.78213e-26
1957 66 0.0015 0.0127576 -1.86871 0 -5.36504e-13 4.2922e-12 0 0 1.37258e-26
10269 343 0.0015 0.423451 -1.86924 0 -2.32871e-13 1.26562e-12 0 2.48474e-20 8.78959e-27
1482 50 0.0015 0.581354 -1.86848 0 -3.3799e-13 1.12966e-12 0 0 5.17843e-27
3528 118 0.0015 0.668424 -1.86944 0 2.05636e-12 2.2101e-14 0 0 2.8064e-26
2651 89 0.0015 -0.608121 -1.86636 0 3.50517e-12 -1.68425e-12 0 5.32605e-21 1.29193e-26
10305 344 0.0015 -0.501838 -1.8667 0 1.22643e-14 2.46889e-12 0 0 4.24754e-27
10304 344 0.0015 -0.499014 -1.86761 0 2.92399e-12 -4.26112e-12 0 0 6.90271e-27
6089 203 0.0015 -0.438274 -1.86649 0 5.36144e-12 -7.5796e-12 0 0 3.3553e-26
6088 203 0.0015 -0.436457 -1.86735 0 -1.09603e-11 8.95015e-12 0 0 5.35644e-26
8004 267 0.0015 -0.248369 -1.86612 0 5.51107e-12 -8.22775e-13 0 0 1.08416e-26
8003 267 0.0015 -0.246044 -1.867 0 -4.8378e-12 9.41338e-13 0 0 9.40393e-27
8002 267 0.0015 -0.243718 -1.86788 0 -1.01219e-12 -1.00153e-13 0 0 5.44382e-27
8046 269 0.0015 0.152008 -1.86695 0 2.08816e-13 -2.12781e-12 0 3.6872e-21 8.02839e-27
6004 201 0.0015 0.499982 -1.86721 0 -2.44916e-13 -5.35588e-13 0 0 3.42996e-27
3527 118 0.0015 0.670962 -1.86752 0 5.64522e-12 5.79939e-12 0 0 2.97774e-26
10307 344 0.0015 -0.507486 -1.86489 0 -2.20714e-12 1.10584e-12 0 0 2.70507e-27
10306 344 0.0015 -0.504662 -1.8658 0 -5.14075e-13 -4.16609e-13 0 0 1.73184e-27
6090 203 0.0015 -0.440091 -1.86563 0 5.33134e-13 1.94035e-12 0 0 6.84184e-29
8006 267 0.0015 -0.253021 -1.86436 0 -1.09909e-11 6.428e-13 0 0 3.87438e-26
8005 267 0.0015 -0.250695 -1.86524 0 2.41355e-12 -7.51307e-13 0 0 1.74798e-26
10333 345 0.0015 -0.0686412 -1.86599 0 3.84417e-12 -1.27818e-11 0 0 8.68632e-26
10203 341 0.0015 0.288506 -1.8653 0 4.91039e-13 -4.51915e-12 0 0 1.95023e-26
4532 152 0.0015 0.364868 -1.86469 0 4.18384e-13 -2.69613e-12 0 0 1.19791e-26
10270 343 0.0015 0.424172 -1.86529 0 -1.88814e-13 -3.44353e-12 0 1.24237e-20 7.90118e-27
1483 50 0.0015 0.58358 -1.86557 0 -5.72633e-13 -2.67841e-12 0 6.81478e-21 4.02038e-27
3526 118 0.0015 0.673499 -1.86561 0 -3.24157e-12 -3.07456e-12 0 0 2.1653e-26
2652 89 0.0015 -0.611842 -1.86351 0 1.89874e-12 -1.79448e-12 0 1.06521e-20 1.53108e-26
10310 344 0.0015 -0.515959 -1.86217 0 -1.11408e-12 -4.49501e-13 0 1.68424e-20 6.72899e-27
10309 344 0.0015 -0.513134 -1.86307 0 4.85815e-12 -3.3666e-13 0 0 9.21747e-27
10308 344 0.0015 -0.51031 -1.86398 0 -1.06374e-12 -1.06234e-12 0 0 6.49663e-27
6036 202 0.0015 -0.337434 -1.86244 0 4.38955e-13 -7.05882e-13 0 2.74394e-21 7.14768e-27
8008 267 0.0015 -0.257673 -1.8626 0 2.67044e-12 -8.06621e-12 0 0 1.50058e-26
8007 267 0.0015 -0.255347 -1.86348 0 7.10289e-12 4.16872e-12 0 0 2.4597e-26
10334 345 0.0015 -0.0693181 -1.86288 0 -3.84069e-12 1.66586e-11 0 0 1.29212e-25
1958 66 0.0015 0.0122775 -1.86393 0 6.14901e-14 -1.42796e-13 0 5.20104e-21 5.26797e-27
1484 50 0.0015 0.585807 -1.86266 0 9.85624e-13 1.56823e-12 0 6.81478e-21 1.98056e-27
3525 118 0.0015 0.676036 -1.86369 0 3.24157e-12 3.07456e-12 0 0 2.1653e-26
2653 89 0.0015 -0.615563 -1.86065 0 -3.75281e-12 2.45761e-12 0 1.06521e-20 1.62405e-26
10312 344 0.0015 -0.521607 -1.86035 0 -2.90255e-13 -3.16143e-12 0 1.68424e-20 9.85017e-27
10311 344 0.0015 -0.518783 -1.86126 0 -3.5071e-12 3.04809e-12 0 1.68424e-20 8.17077e-27
8010 267 0.0015 -0.262324 -1.86085 0 1.86899e-12 -1.57166e-12 0 0 3.66701e-27
8009 267 0.0015 -0.259998 -1.86172 0 -5.18332e-12 5.81207e-12 0 0 1.82831e-26
8047 269 0.0015 0.151313 -1.86021 0 -8.61127e-14 1.25757e-12 0 0 2.65686e-27
10271 343 0.0015 0.424893 -1.86133 0 -3.50813e-13 -2.37375e-13 0 1.24237e-20 2.6455e-27
3524 118 0.0015 0.678573 -1.86178 0 -5.64522e-12 -5.79939e-12 0 0 2.97774e-26
10314 344 0.0015 -0.527255 -1.85854 0 -9.49193e-13 -2.32995e-12 0 0 5.87121e-27
10313 344 0.0015 -0.524431 -1.85944 0 4.87137e-12 1.90369e-12 0 0 6.77959e-27
10335 345 0.0015 -0.0699949 -1.85978 0 2.52462e-12 -1.27597e-11 0 0 7.99155e-26
1959 66 0.0015 0.0117974 -1.85915 0 3.0447e-14 -4.18866e-13 0 5.20104e-21 3.45938e-27
4771 160 0.0015 0.0785585 -1.85825 0 -6.20046e-16 8.38389e-14 0 0 1.79579e-29
10204 341 0.0015 0.287705 -1.85857 0 -3.61453e-13 3.6101e-12 0 0 1.27962e-26
6005 201 0.0015 0.502997 -1.85945 0 8.17956e-13 1.97101e-12 0 0 5.27381e-27
1485 50 0.0015 0.588033 -1.85975 0 -5.30579e-12 -5.21651e-12 0 6.81478e-21 3.94729e-26
3523 118 0.0015 0.681111 -1.85986 0 -2.05636e-12 -2.2101e-14 0 0 2.8064e-26
2654 89 0.0015 -0.619284 -1.8578 0 1.76887e-12 -4.46358e-13 0 1.06521e-20 2.047e-27
10316 344 0.0015 -0.532903 -1.85672 0 5.9654e-12 -2.57968e-12 0 3.36849e-20 1.82639e-26
10315 344 0.0015 -0.530079 -1.85763 0 -3.6076e-12 2.61647e-12 0 1.68424e-20 7.56659e-27
8013 268 0.0015 -0.167482 -1.85688 0 -8.4739e-15 -4.40851e-14 0 1.90242e-21 2.84871e-28
10336 345 0.0015 -0.0706718 -1.85667 0 -1.02168e-12 5.67739e-12 0 0 2.10332e-26
4533 152 0.0015 0.36352 -1.85607 0 -5.00541e-13 3.00464e-12 0 0 1.312e-26
10272 343 0.0015 0.425614 -1.85738 0 1.05446e-12 5.17547e-12 0 0 2.00418e-26
1486 50 0.0015 0.59026 -1.85684 0 5.30579e-12 5.21651e-12 0 6.81478e-21 3.94729e-26
3522 118 0.0015 0.683648 -1.85795 0 5.93877e-12 4.58998e-12 0 0 2.65479e-26
3521 118 0.0015 0.686185 -1.85603 0 -4.49288e-12 -5.60269e-12 0 0 2.22696e-26
2655 89 0.0015 -0.623004 -1.85494 0 -1.94465e-12 3.29919e-13 0 1.06521e-20 2.2546e-27
10318 344 0.0015 -0.538552 -1.85491 0 3.17578e-12 -9.22466e-13 0 5.05273e-20 1.72056e-26
10317 344 0.0015 -0.535727 -1.85581 0 -8.03272e-12 2.63076e-12 0 5.05273e-20 2.95017e-26
6037 202 0.0015 -0.342237 -1.85471 0 -5.54022e-13 8.70419e-13 0 2.74394e-21 8.80005e-27
1960 66 0.0015 0.0113172 -1.85437 0 6.87079e-13 -6.71378e-12 0 5.20104e-21 4.65986e-26
3520 118 0.0015 0.688722 -1.85412 0 1.10427e-12 4.20331e-12 0 1.57149e-20 1.59731e-26
2656 89 0.0015 -0.626725 -1.85209 0 3.53449e-13 5.96202e-13 0 1.59781e-20 3.99457e-27
10320 344 0.0015 -0.5442 -1.85309 0 -4.65443e-12 1.23614e-12 0 1.68424e-20 1.90592e-26
10319 344 0.0015 -0.541376 -1.854 0 5.7406e-12 -1.52856e-12 0 3.36849e-20 2.00994e-26
10337 345 0.0015 -0.0713486 -1.85356 0 -4.27963e-13 8.91643e-13 0 1.57149e-20 4.20485e-27
8048 269 0.0015 0.150617 -1.85348 0 -1.39785e-13 7.1071e-13 0 0 9.49183e-27
10273 343 0.0015 0.426335 -1.85342 0 -1.99854e-12 -1.04993e-11 0 1.24237e-20 6.75096e-26
1487 50 0.0015 0.592486 -1.85392 0 -9.85624e-13 -1.56823e-12 0 6.81478e-21 1.98056e-27
3519 118 0.0015 0.69126 -1.8522 0 8.30868e-12 3.07218e-12 0 3.14298e-20 5.30622e-26
10338 345 0.0015 -0.0720254 -1.85046 0 3.18917e-13 -3.45098e-15 0 3.14298e-20 6.45609e-27
10205 341 0.0015 0.286904 -1.85184 0 1.26652e-13 -1.51374e-12 0 0 4.13519e-27
6006 201 0.0015 0.506013 -1.85168 0 -6.53619e-13 -1.46263e-12 0 5.99535e-21 3.20878e-27
1488 50 0.0015 0.594712 -1.85101 0 5.72633e-13 2.67841e-12 0 6.81478e-21 4.02038e-27
3518 118 0.0015 0.693797 -1.85028 0 -7.91802e-12 -3.5646e-12 0 3.14298e-20 5.30419e-26
2657 89 0.0015 -0.630446 -1.84923 0 1.81478e-12 -1.62884e-12 0 1.06521e-20 3.86113e-27
1961 66 0.0015 0.0108371 -1.84959 0 -1.15398e-12 1.14078e-11 0 0 8.77294e-26
4772 160 0.0015 0.0782973 -1.84905 0 6.2708e-14 -2.40526e-12 0 0 1.38013e-26
10274 343 0.0015 0.427056 -1.84946 0 2.5937e-12 1.14311e-11 0 1.24237e-20 7.79494e-26
1489 50 0.0015 0.596939 -1.8481 0 3.3799e-13 -1.12966e-12 0 0 5.17843e-27
3517 118 0.0015 0.696334 -1.84837 0 -2.27068e-12 -3.06853e-12 0 1.57149e-20 1.77146e-26
2658 89 0.0015 -0.634167 -1.84638 0 -3.32588e-12 2.67659e-12 0 5.32605e-21 1.43756e-26
6038 202 0.0015 -0.34704 -1.84697 0 1.26247e-12 -1.99561e-12 0 2.74394e-21 8.57574e-27
10339 345 0.0015 -0.0727023 -1.84735 0 5.78606e-13 -3.23124e-12 0 3.14298e-20 4.84959e-27
8049 269 0.0015 0.149922 -1.84674 0 8.47304e-13 -7.75056e-12 0 0 7.21182e-26
6541 219 0.0015 0.213251 -1.84656 0 3.49577e-13 -4.14091e-12 0 0 3.41003e-26
4534 152 0.0015 0.362172 -1.84745 0 -7.75167e-14 8.03938e-13 0 0 9.0203e-27
3516 118 0.0015 0.698871 -1.84645 0 7.52376e-12 4.75971e-12 0 0 3.47603e-26
8014 268 0.0015 -0.163039 -1.84452 0 -8.53807e-14 -2.25424e-13 0 1.90242e-21 1.26957e-28
10340 345 0.0015 -0.0733791 -1.84424 0 -3.33672e-13 8.18715e-13 0 1.57149e-20 1.99306e-27
1962 66 0.0015 0.010357 -1.84481 0 7.74834e-13 -7.89955e-12 0 0 4.93592e-26
10206 341 0.0015 0.286103 -1.84511 0 6.20069e-14 -3.32733e-13 0 0 2.65561e-28
10275 343 0.0015 0.427777 -1.84551 0 -2.74224e-12 -9.14453e-12 0 1.24237e-20 5.05284e-26
1490 50 0.0015 0.599165 -1.84519 0 -8.84178e-13 -6.00304e-13 0 0 1.53158e-27
3515 118 0.0015 0.701409 -1.84454 0 -1.0007e-11 -3.45421e-12 0 0 4.53426e-26
2659 89 0.0015 -0.637888 -1.84352 0 4.55778e-12 -4.22075e-12 0 0 2.49236e-26
6007 201 0.0015 0.509028 -1.84391 0 4.74497e-14 -1.96466e-13 0 5.99535e-21 2.00328e-27
1491 50 0.0015 0.601391 -1.84228 0 1.06759e-13 -2.58166e-13 0 0 4.26265e-29
3514 118 0.0015 0.703946 -1.84262 0 9.8727e-12 2.14448e-12 0 0 3.89951e-26
2660 89 0.0015 -0.641609 -1.84066 0 -1.31773e-12 2.17898e-12 0 5.32605e-21 1.29135e-26
10341 345 0.0015 -0.074056 -1.84114 0 -1.83575e-13 1.61522e-12 0 0 1.28868e-27
1963 66 0.0015 0.00987681 -1.84004 0 1.04503e-13 -5.02096e-13 0 0 1.77432e-26
10276 343 0.0015 0.428498 -1.84155 0 2.74224e-12 9.14453e-12 0 1.24237e-20 5.05284e-26
3513 118 0.0015 0.706483 -1.84071 0 -1.91441e-12 1.55994e-12 0 0 1.90071e-26
6039 202 0.0015 -0.351842 -1.83924 0 3.8703e-14 -8.07389e-14 0 2.74394e-21 2.3209e-27
10342 345 0.0015 -0.0747328 -1.83803 0 5.89143e-13 -3.93751e-12 0 0 8.40717e-27
4773 160 0.0015 0.0780361 -1.83985 0 -1.37429e-13 5.0541e-12 0 2.71488e-21 3.28839e-26
8050 269 0.0015 0.149226 -1.84 0 -1.07583e-12 1.03786e-11 0 0 1.04144e-25
6542 219 0.0015 0.21269 -1.83947 0 -3.88869e-13 4.2703e-12 0 0 3.41347e-26
10207 341 0.0015 0.285302 -1.83839 0 -2.03246e-13 2.00474e-12 0 3.6872e-21 5.32959e-27
4535 152 0.0015 0.360823 -1.83883 0 2.27608e-13 -1.54164e-12 0 0 7.10976e-27
1492 50 0.0015 0.603618 -1.83936 0 -1.22234e-12 -1.18483e-12 0 0 2.69938e-27
3512 118 0.0015 0.70902 -1.83879 0 -5.12015e-12 -4.0927e-12 0 0 1.91193e-26
2661 89 0.0015 -0.64533 -1.83781 0 -2.0394e-12 8.04655e-13 0 5.32605e-21 3.224e-27
10277 343 0.0015 0.429219 -1.8376 0 -2.5937e-12 -1.14311e-11 0 1.24237e-20 7.79494e-26
6008 201 0.0015 0.512043 -1.83614 0 2.82839e-13 9.71638e-13 0 5.99535e-21 1.42439e-27
1493 50 0.0015 0.605844 -1.83645 0 1.60705e-12 1.98124e-12 0 0 3.56314e-27
3511 118 0.0015 0.711558 -1.83688 0 3.00014e-12 1.96616e-12 0 0 1.13122e-26
2662 89 0.0015 -0.649051 -1.83495 0 2.44165e-12 -1.88284e-12 0 1.06521e-20 6.23806e-27
10343 345 0.0015 -0.0754097 -1.83493 0 -8.38606e-13 8.07219e-12 0 0 3.10364e-26
1964 66 0.0015 0.00939668 -1.83526 0 -3.96869e-14 -1.97554e-13 0 0 2.27346e-26
2663 89 0.0015 -0.652772 -1.8321 0 -1.45535e-12 1.41212e-12 0 5.32605e-21 3.80011e-27
10171 340 0.0015 -0.234195 -1.83312 0 1.49385e-12 -2.14118e-12 0 0 1.48016e-26
8015 268 0.0015 -0.158597 -1.83216 0 -1.12171e-14 -1.71899e-14 0 1.90242e-21 4.37657e-29
8051 269 0.0015 0.14853 -1.83326 0 5.13726e-13 -5.17334e-12 0 3.6872e-21 3.96758e-26
6543 219 0.0015 0.212128 -1.83239 0 -1.95616e-14 8.34869e-13 0 0 1.87675e-27
10278 343 0.0015 0.429939 -1.83364 0 1.99854e-12 1.04993e-11 0 1.24237e-20 6.75096e-26
1494 50 0.0015 0.60807 -1.83354 0 -1.21495e-13 4.56932e-13 0 0 2.36261e-27
6040 202 0.0015 -0.356645 -1.83151 0 -1.42631e-12 2.29842e-12 0 2.74394e-21 1.12722e-26
10344 345 0.0015 -0.0760865 -1.83182 0 9.70378e-13 -1.16712e-11 0 0 6.02169e-26
1965 66 0.0015 0.00891654 -1.83048 0 -1.06299e-12 1.09302e-11 0 5.20104e-21 9.68197e-26
4774 160 0.0015 0.0777749 -1.83066 0 1.0378e-13 -3.75681e-12 0 5.42976e-21 2.17834e-26
10208 341 0.0015 0.284501 -1.83166 0 8.76788e-14 -1.43633e-12 0 7.37441e-21 5.14495e-27
4536 152 0.0015 0.359475 -1.83021 0 3.93038e-13 -2.69212e-12 0 0 1.60874e-26
1495 50 0.0015 0.610297 -1.83063 0 -3.62302e-13 -3.0125e-12 0 0 3.49498e-27
2664 89 0.0015 -0.656493 -1.82924 0 2.01979e-13 -2.46403e-13 0 5.32605e-21 1.52436e-28
10345 345 0.0015 -0.0767633 -1.82871 0 -4.41298e-13 8.30287e-12 0 0 3.93266e-26
10279 343 0.0015 0.43066 -1.82968 0 -1.05446e-12 -5.17547e-12 0 0 2.00418e-26
6009 201 0.0015 0.515058 -1.82837 0 3.90586e-13 1.0249e-12 0 0 4.51262e-27
2665 89 0.0015 -0.660213 -1.82639 0 -9.35719e-13 7.07231e-13 0 5.32605e-21 1.88777e-27
10172 340 0.0015 -0.238704 -1.82673 0 -2.22986e-12 3.20149e-12 0 0 1.84193e-26
8052 269 0.0015 0.147835 -1.82652 0 2.12493e-13 -1.99884e-12 0 7.37441e-21 1.41603e-26
1496 50 0.0015 0.612523 -1.82772 0 -2.33875e-12 1.1743e-12 0 0 5.63216e-27
10346 345 0.0015 -0.0774402 -1.82561 0 -1.22368e-12 3.19572e-12 0 0 2.62536e-26
1966 66 0.0015 0.0084364 -1.8257 0 9.24362e-13 -9.55675e-12 0 5.20104e-21 8.82618e-26
6544 219 0.0015 0.211567 -1.8253 0 1.44256e-13 -2.25501e-12 0 0 5.14601e-27
10209 341 0.0015 0.2837 -1.82493 0 4.3661e-13 -3.0545e-12 0 7.37441e-21 1.56931e-26
10280 343 0.0015 0.431381 -1.82573 0 3.50813e-13 2.37375e-13 0 1.24237e-20 2.6455e-27
1497 50 0.0015 0.614749 -1.8248 0 2.72005e-12 -6.07734e-13 0 0 4.16004e-27
2666 89 0.0015 -0.663934 -1.82353 0 -2.84253e-14 -1.21258e-13 0 2.13042e-20 3.61582e-27
6041 202 0.0015 -0.361448 -1.82377 0 1.42115e-12 -2.27437e-12 0 2.74394e-21 1.11892e-26
10347 345 0.0015 -0.078117 -1.8225 0 2.8646e-12 -1.37896e-11 0 0 9.3857e-26
2667 89 0.0015 -0.667655 -1.82068 0 1.98202e-12 -1.58014e-12 0 2.66302e-20 4.21854e-27
10173 340 0.0015 -0.243212 -1.82034 0 1.35462e-12 -1.94122e-12 0 0 6.13381e-27
1967 66 0.0015 0.00795626 -1.82092 0 1.44204e-13 -5.9204e-13 0 1.04021e-20 1.02339e-26
4775 160 0.0015 0.0775136 -1.82146 0 4.26072e-15 -4.48626e-14 0 8.14464e-21 5.60624e-27
4537 152 0.0015 0.358127 -1.82159 0 -3.26169e-13 2.35497e-12 0 0 1.61265e-26
10281 343 0.0015 0.432102 -1.82177 0 1.88814e-13 3.44353e-12 0 1.24237e-20 7.90118e-27
6010 201 0.0015 0.518074 -1.8206 0 -1.17686e-12 -3.22764e-12 0 0 1.42151e-26
1498 50 0.0015 0.616976 -1.82189 0 4.25698e-12 8.77333e-12 0 0 8.00183e-26
8016 268 0.0015 -0.154154 -1.81981 0 6.07764e-14 1.44174e-13 0 1.90242e-21 4.50657e-29
10348 345 0.0015 -0.0787939 -1.81939 0 -2.87675e-12 1.46725e-11 0 1.57149e-20 1.02397e-25
8053 269 0.0015 0.147139 -1.81978 0 -2.20296e-13 2.45293e-12 0 7.37441e-21 1.34319e-26
6545 219 0.0015 0.211005 -1.81821 0 -9.87264e-14 1.36955e-12 0 3.51396e-21 3.31624e-27
10210 341 0.0015 0.282899 -1.8182 0 -6.81589e-13 5.40681e-12 0 7.37441e-21 2.80341e-26
1499 50 0.0015 0.619202 -1.81898 0 -5.01889e-12 -8.51746e-12 0 0 8.04671e-26
2668 89 0.0015 -0.671376 -1.81782 0 -1.75712e-12 1.92409e-12 0 2.66302e-20 4.31272e-27
6042 202 0.0015 -0.366251 -1.81604 0 1.07972e-12 -1.78125e-12 0 2.74394e-21 2.0775e-26
10349 345 0.0015 -0.0794707 -1.81629 0 1.06693e-12 -5.76584e-12 0 1.57149e-20 3.20399e-26
1968 66 0.0015 0.00747613 -1.81614 0 -2.85402e-13 1.48264e-12 0 5.20104e-21 7.39174e-27
10282 343 0.0015 0.432823 -1.81781 0 2.32871e-13 -1.26562e-12 0 2.48474e-20 8.78959e-27
1500 50 0.0015 0.621428 -1.81607 0 3.12131e-13 9.93823e-13 0 0 9.7608e-28
2669 89 0.0015 -0.675097 -1.81497 0 3.99316e-13 -8.63303e-13 0 1.06521e-20 1.97466e-27
5941 199 0.0015 0.740778 -1.81551 0 -7.08314e-13 -2.91521e-12 0 2.60052e-21 2.40148e-26
2670 89 0.0015 -0.678818 -1.81211 0 3.48279e-13 -1.05773e-13 0 5.32605e-21 1.51228e-28
10174 340 0.0015 -0.24772 -1.81396 0 -1.8251e-12 2.63922e-12 0 0 1.23894e-26
10350 345 0.0015 -0.0801475 -1.81318 0 7.4858e-14 -1.47905e-13 0 1.57149e-20 2.27385e-29
4776 160 0.0015 0.0772524 -1.81226 0 -7.98482e-14 2.65565e-12 0 8.14464e-21 9.36349e-27
8054 269 0.0015 0.146443 -1.81304 0 -3.15606e-13 2.37765e-12 0 7.37441e-21 9.1522e-27
4538 152 0.0015 0.356779 -1.81297 0 -1.01172e-13 4.52258e-13 0 0 2.65395e-28
10283 343 0.0015 0.433544 -1.81386 0 -9.15792e-13 -3.67644e-12 0 2.48474e-20 8.79499e-27
6011 201 0.0015 0.521089 -1.81283 0 1.57611e-12 4.25761e-12 0 5.99535e-21 2.40425e-26
1969 66 0.0015 0.00699599 -1.81136 0 -2.21817e-13 3.47963e-12 0 5.20104e-21 1.08162e-26
6546 219 0.0015 0.210443 -1.81113 0 -4.03433e-14 9.68813e-13 0 3.51396e-21 2.18373e-27
10211 341 0.0015 0.282098 -1.81148 0 3.90233e-13 -3.109e-12 0 7.37441e-21 1.30189e-26
6043 202 0.0015 -0.371054 -1.8083 0 -1.74196e-12 2.83722e-12 0 2.74394e-21 2.03079e-26
10284 343 0.0015 0.434265 -1.8099 0 -3.93428e-14 5.17008e-13 0 2.48474e-20 1.13693e-26
10175 340 0.0015 -0.252228 -1.80757 0 2.57108e-12 -3.75556e-12 0 0 2.25766e-26
8017 268 0.0015 -0.149712 -1.80745 0 -4.97039e-13 -1.37569e-12 0 1.90242e-21 7.09809e-27
1970 66 0.0015 0.00651585 -1.80658 0 2.08122e-13 -2.79166e-12 0 0 1.01023e-26
8055 269 0.0015 0.145748 -1.8063 0 5.21055e-13 -4.15622e-12 0 7.37441e-21 1.65408e-26
5942 199 0.0015 0.743061 -1.80618 0 1.38228e-12 5.69309e-12 0 2.60052e-21 4.58167e-26
6547 219 0.0015 0.209882 -1.80404 0 1.10493e-13 -1.97437e-12 0 3.51396e-21 3.87302e-27
10212 341 0.0015 0.281297 -1.80475 0 1.96857e-13 -1.54784e-12 0 1.10616e-20 9.09439e-27