ITEM: TIMESTEP
114810
ITEM: NUMBER OF ATOMS
10500
ITEM: BOX BOUNDS pp pp pp
-1.0249999999999999e+00 1.0249999999999999e+00
-2.0000000000000000e+00 2.0000000000000000e+00
-5.0000000000000003e-02 5.0000000000000003e-02
ITEM: ATOMS id type radius x y z fx fy fz c_bendingE c_stretchingE
10321 345 0.0015 -0.0605191 -1.90326 0 -1.32401e-12 5.57999e-12 0 1.57149e-20 2.90349e-26
6031 202 0.0015 -0.31342 -1.90111 0 -5.82295e-14 1.14837e-13 0 2.74394e-21 4.16129e-29
10322 345 0.0015 -0.061196 -1.90016 0 2.91368e-12 -1.17321e-11 0 3.14298e-20 6.46372e-26
8041 269 0.0015 0.155487 -1.90065 0 -1.69278e-13 1.58641e-12 0 0 4.79001e-27
10261 343 0.0015 0.417684 -1.90089 0 5.18591e-14 1.32855e-12 0 0 1.93553e-27
1471 50 0.0015 0.556864 -1.90052 0 2.00451e-12 2.46844e-12 0 0 1.02866e-26
10323 345 0.0015 -0.0618728 -1.89705 0 -1.32041e-12 3.22096e-12 0 4.71447e-20 4.31384e-26
1951 66 0.0015 0.0156385 -1.89738 0 -3.0907e-13 3.11573e-12 0 5.20104e-21 1.3079e-26
10262 343 0.0015 0.418405 -1.89694 0 6.80198e-14 -3.78351e-12 0 0 8.33594e-27
1472 50 0.0015 0.559091 -1.8976 0 -4.74896e-12 -5.14564e-12 0 6.81478e-21 2.49409e-26
2641 89 0.0015 -0.570912 -1.89491 0 -1.4406e-12 1.45264e-12 0 0 5.35414e-27
1473 50 0.0015 0.561317 -1.89469 0 4.50319e-12 3.29658e-12 0 6.81478e-21 1.71331e-26
2642 89 0.0015 -0.574633 -1.89206 0 4.20126e-12 -4.13418e-12 0 5.32605e-21 2.43914e-26
6032 202 0.0015 -0.318223 -1.89337 0 -4.28856e-13 6.62101e-13 0 2.74394e-21 2.16801e-27
10324 345 0.0015 -0.0625496 -1.89394 0 -2.99569e-12 1.77713e-11 0 4.71447e-20 2.08369e-25
1952 66 0.0015 0.0151583 -1.8926 0 3.44031e-13 -3.60963e-12 0 1.04021e-20 1.34057e-26
8042 269 0.0015 0.154791 -1.89391 0 1.00452e-13 -6.50599e-13 0 0 6.44553e-27
10263 343 0.0015 0.419126 -1.89298 0 -8.64649e-13 1.6544e-12 0 1.24237e-20 7.34814e-27
3540 118 0.0015 0.637977 -1.89243 0 -1.6514e-12 -6.79125e-13 0 0 2.63437e-27
6061 203 0.0015 -0.387409 -1.89062 0 2.37684e-12 -1.31182e-12 0 0 4.101e-27
10325 345 0.0015 -0.0632265 -1.89084 0 4.70943e-12 -2.64683e-11 0 4.71447e-20 3.23456e-25
10231 342 0.0015 0.215 -1.89 0 -2.75902e-12 0 0 0 1.45828e-27
10232 342 0.0015 0.21569 -1.89 0 4.05676e-12 0 0 0 1.7809e-27
10233 342 0.0015 0.216379 -1.89 0 -3.62655e-13 0 0 0 4.90289e-28
10234 342 0.0015 0.217069 -1.89 0 -2.20926e-12 0 0 0 4.78578e-28
10235 342 0.0015 0.217759 -1.89 0 3.22389e-12 0 0 0 1.03915e-27
10236 342 0.0015 0.218448 -1.89 0 -5.97669e-12 0 0 0 3.83451e-27
10237 342 0.0015 0.219138 -1.89 0 9.59857e-12 0 0 0 9.05362e-27
10238 342 0.0015 0.219828 -1.89 0 -1.05405e-11 0 0 0 1.06765e-26
10239 342 0.0015 0.220517 -1.89 0 9.30947e-12 0 0 0 8.33798e-27
10240 342 0.0015 0.221207 -1.89 0 -1.0721e-11 0 0 0 1.14094e-26
10241 342 0.0015 0.221897 -1.89 0 1.22058e-11 0 0 0 1.43015e-26
10242 342 0.0015 0.222586 -1.89 0 -9.59858e-12 0 0 0 9.22834e-27
10243 342 0.0015 0.223276 -1.89 0 7.89663e-12 0 0 0 5.98391e-27
10244 342 0.0015 0.223966 -1.89 0 -1.00694e-11 0 0 0 1.00305e-26
10245 342 0.0015 0.224655 -1.89 0 1.48864e-11 0 0 0 2.20863e-26
10246 342 0.0015 0.225345 -1.89 0 -1.48864e-11 0 0 0 2.20863e-26
10247 342 0.0015 0.226034 -1.89 0 1.00694e-11 0 0 0 1.00305e-26
10248 342 0.0015 0.226724 -1.89 0 -7.89663e-12 0 0 0 5.98391e-27
10249 342 0.0015 0.227414 -1.89 0 9.59858e-12 0 0 0 9.22834e-27
10250 342 0.0015 0.228103 -1.89 0 -1.22058e-11 0 0 0 1.43015e-26
10251 342 0.0015 0.228793 -1.89 0 1.0721e-11 0 0 0 1.14094e-26
10252 342 0.0015 0.229483 -1.89 0 -9.30947e-12 0 0 0 8.33798e-27
10253 342 0.0015 0.230172 -1.89 0 1.05405e-11 0 0 0 1.06765e-26
10254 342 0.0015 0.230862 -1.89 0 -9.59857e-12 0 0 0 9.05362e-27
10255 342 0.0015 0.231552 -1.89 0 5.97669e-12 0 0 0 3.83451e-27
10256 342 0.0015 0.232241 -1.89 0 -3.22389e-12 0 0 0 1.03915e-27
10257 342 0.0015 0.232931 -1.89 0 2.20926e-12 0 0 0 4.78578e-28
10258 342 0.0015 0.233621 -1.89 0 3.62655e-13 0 0 0 4.90289e-28
10259 342 0.0015 0.23431 -1.89 0 -4.05676e-12 0 0 0 1.7809e-27
10260 342 0.0015 0.235 -1.89 0 2.75902e-12 0 0 0 1.45828e-27
6001 201 0.0015 0.490936 -1.89052 0 -1.18137e-12 -3.12279e-12 0 5.99535e-21 2.58018e-26
1474 50 0.0015 0.563543 -1.89178 0 -7.06002e-13 2.02892e-12 0 6.81478e-21 1.01413e-26
3539 118 0.0015 0.640514 -1.89051 0 -7.64922e-13 -1.66872e-12 0 0 1.25041e-26
2643 89 0.0015 -0.578354 -1.8892 0 -3.45663e-12 3.59377e-12 0 1.06521e-20 2.06352e-26
6063 203 0.0015 -0.391043 -1.8889 0 -8.32815e-13 4.1241e-12 0 0 9.84879e-27
6064 203 0.0015 -0.392859 -1.88804 0 7.12049e-12 -6.64483e-12 0 0 2.45919e-26
6062 203 0.0015 -0.389226 -1.88976 0 -4.41961e-12 3.38835e-13 0 0 5.24078e-27
10264 343 0.0015 0.419847 -1.88903 0 1.21955e-12 2.75489e-12 0 1.24237e-20 5.45076e-27
1475 50 0.0015 0.56577 -1.88887 0 -1.66313e-12 -4.14029e-12 0 0 1.01278e-26
3538 118 0.0015 0.643052 -1.8886 0 5.15736e-12 4.07871e-12 0 0 1.9086e-26
2644 89 0.0015 -0.582074 -1.88635 0 -2.70451e-13 -4.35024e-13 0 1.06521e-20 3.05412e-27
6066 203 0.0015 -0.396492 -1.88631 0 1.88537e-12 -6.08587e-12 0 0 6.79456e-27
6065 203 0.0015 -0.394676 -1.88717 0 -5.88446e-12 7.86182e-12 0 0 2.21645e-26
7981 267 0.0015 -0.194876 -1.88635 0 -3.47782e-13 1.13038e-12 0 0 3.63248e-28
10326 345 0.0015 -0.0639033 -1.88773 0 -3.56017e-12 2.04833e-11 0 3.14298e-20 1.93963e-25
1953 66 0.0015 0.0146782 -1.88782 0 -1.01531e-13 1.34366e-12 0 1.04021e-20 1.29559e-27
8043 269 0.0015 0.154095 -1.88717 0 -1.21593e-13 5.15557e-13 0 0 5.6848e-27
3537 118 0.0015 0.645589 -1.88668 0 -4.64163e-12 -3.41234e-12 0 0 1.48687e-26
6068 203 0.0015 -0.400126 -1.88459 0 2.37008e-12 -8.17164e-12 0 0 1.29497e-26
6067 203 0.0015 -0.398309 -1.88545 0 -3.71931e-12 5.42439e-12 0 0 1.2993e-26
6033 202 0.0015 -0.323025 -1.88564 0 2.2057e-12 -3.58302e-12 0 2.74394e-21 2.95067e-26
7983 267 0.0015 -0.199527 -1.8846 0 -9.05129e-14 -5.96913e-12 0 1.00459e-20 3.67774e-27
7982 267 0.0015 -0.197202 -1.88548 0 1.0547e-12 -1.11498e-14 0 0 4.11854e-28
10327 345 0.0015 -0.0645802 -1.88463 0 2.11913e-12 -1.07591e-11 0 1.57149e-20 7.47862e-26
10265 343 0.0015 0.420568 -1.88507 0 -2.59636e-13 -2.1658e-12 0 1.24237e-20 4.53511e-27
1476 50 0.0015 0.567996 -1.88596 0 9.2202e-13 3.03293e-12 0 0 4.49941e-27
3536 118 0.0015 0.648126 -1.88476 0 5.65006e-12 6.21337e-12 0 0 3.45768e-26
2645 89 0.0015 -0.585795 -1.88349 0 5.36172e-12 -3.7349e-12 0 5.32605e-21 4.04404e-26
6071 203 0.0015 -0.405575 -1.882 0 2.24075e-12 -3.54871e-12 0 0 3.61005e-27
6070 203 0.0015 -0.403759 -1.88287 0 -5.3462e-13 1.61749e-12 0 0 2.84277e-27
6069 203 0.0015 -0.401942 -1.88373 0 1.01464e-12 6.36525e-12 0 0 9.16769e-28
7985 267 0.0015 -0.204179 -1.88284 0 -2.66942e-12 -6.51052e-12 0 2.00918e-20 1.20502e-27
7984 267 0.0015 -0.201853 -1.88372 0 -1.66572e-13 8.39144e-12 0 2.00918e-20 4.10737e-27
1954 66 0.0015 0.0141981 -1.88304 0 -1.87305e-13 1.51929e-12 0 1.04021e-20 8.54218e-27
6002 201 0.0015 0.493952 -1.88275 0 2.17265e-12 5.8069e-12 0 5.99535e-21 4.47476e-26
1477 50 0.0015 0.570222 -1.88304 0 2.68842e-13 -2.3086e-12 0 0 2.10155e-27
3535 118 0.0015 0.650663 -1.88285 0 -1.75661e-12 -4.8746e-12 0 0 3.06159e-26
2646 89 0.0015 -0.589516 -1.88064 0 -1.12699e-11 8.49016e-12 0 5.32605e-21 1.36225e-25
6073 203 0.0015 -0.409209 -1.88028 0 -2.90796e-12 2.42702e-11 0 0 5.22316e-26
6072 203 0.0015 -0.407392 -1.88114 0 2.15484e-12 -1.20615e-11 0 0 4.24398e-26
7988 267 0.0015 -0.211156 -1.8802 0 -2.57254e-12 1.11888e-11 0 1.00459e-20 1.39897e-26
7987 267 0.0015 -0.208831 -1.88108 0 -4.88937e-14 -1.08731e-11 0 0 7.37178e-27
7986 267 0.0015 -0.206505 -1.88196 0 3.45585e-12 7.89678e-12 0 1.00459e-20 9.64712e-28
8011 268 0.0015 -0.176367 -1.88159 0 7.03828e-13 1.96343e-12 0 1.90242e-21 1.58677e-26
10328 345 0.0015 -0.065257 -1.88152 0 -6.51489e-13 1.05977e-12 0 0 4.01417e-27
8044 269 0.0015 0.1534 -1.88043 0 4.81746e-13 -3.9418e-12 0 0 1.58587e-26
10266 343 0.0015 0.421289 -1.88111 0 -5.98684e-13 -6.87264e-13 0 0 1.04645e-27
1478 50 0.0015 0.572449 -1.88013 0 -1.66993e-12 2.01912e-13 0 0 1.32448e-27
3534 118 0.0015 0.653201 -1.88093 0 -7.03189e-12 -3.12439e-12 0 0 3.46663e-26
10292 344 0.0015 -0.465124 -1.8785 0 -4.45112e-12 -3.59471e-12 0 0 1.25162e-26
10291 344 0.0015 -0.4623 -1.87941 0 -1.23971e-13 1.89129e-12 0 0 3.99828e-28
6074 203 0.0015 -0.411025 -1.87942 0 -4.19894e-12 -1.94204e-11 0 0 1.10109e-26
6075 203 0.0015 -0.412842 -1.87856 0 5.73979e-13 1.29941e-11 0 0 1.37429e-26
7990 267 0.0015 -0.215808 -1.87844 0 -3.71748e-14 6.48607e-12 0 1.00459e-20 1.88722e-27
7989 267 0.0015 -0.213482 -1.87932 0 1.14272e-12 -9.45647e-12 0 1.00459e-20 7.95862e-27
10329 345 0.0015 -0.0659339 -1.87841 0 3.9557e-13 -1.66373e-13 0 0 1.53759e-27
1955 66 0.0015 0.0137179 -1.87827 0 4.83217e-13 -4.47235e-12 0 5.20104e-21 1.35451e-26
10201 341 0.0015 0.290108 -1.87875 0 -5.99308e-14 4.46572e-13 0 0 3.8198e-28
3533 118 0.0015 0.655738 -1.87902 0 5.98114e-12 5.61814e-12 0 0 3.66786e-26
2647 89 0.0015 -0.593237 -1.87778 0 1.03023e-11 -7.83987e-12 0 1.06521e-20 1.21404e-25
10294 344 0.0015 -0.470773 -1.87669 0 -5.19024e-12 1.93686e-12 0 0 1.26553e-26
10293 344 0.0015 -0.467948 -1.87759 0 7.67548e-12 1.80829e-12 0 0 1.91403e-26
6077 203 0.0015 -0.416475 -1.87683 0 -1.51957e-11 5.20477e-12 0 0 7.13238e-26
6076 203 0.0015 -0.414658 -1.87769 0 1.07405e-11 -8.51147e-12 0 0 5.3078e-26
6034 202 0.0015 -0.327828 -1.87791 0 -4.04652e-12 6.58071e-12 0 0 7.71137e-26
7992 267 0.0015 -0.22046 -1.87668 0 7.51967e-12 1.61046e-12 0 0 1.77024e-26
7991 267 0.0015 -0.218134 -1.87756 0 -1.61767e-12 -2.50503e-12 0 0 2.76317e-27
10267 343 0.0015 0.42201 -1.87716 0 -6.77948e-14 -1.92314e-12 0 0 1.01326e-26
1479 50 0.0015 0.574675 -1.87722 0 1.61577e-12 1.50466e-12 0 0 2.41318e-27
3532 118 0.0015 0.658275 -1.8771 0 3.94103e-12 -2.32464e-13 0 0 2.62536e-26
2648 89 0.0015 -0.596958 -1.87493 0 -6.75187e-12 5.21697e-12 0 1.59781e-20 4.74292e-26
10296 344 0.0015 -0.476421 -1.87487 0 -6.56815e-12 3.57739e-12 0 0 2.2976e-26
10295 344 0.0015 -0.473597 -1.87578 0 5.71526e-12 -4.94913e-12 0 0 2.11587e-26
6080 203 0.0015 -0.421925 -1.87425 0 8.46547e-12 -2.15628e-12 0 0 2.05633e-26
6079 203 0.0015 -0.420108 -1.87511 0 -1.54609e-12 1.05479e-11 0 0 1.12222e-26
6078 203 0.0015 -0.418291 -1.87597 0 6.86886e-12 -7.42974e-12 0 0 3.38405e-26
7995 267 0.0015 -0.227437 -1.87404 0 -8.28009e-12 -9.15958e-12 0 0 9.63941e-27
7994 267 0.0015 -0.225111 -1.87492 0 9.45286e-12 8.98051e-12 0 0 1.63919e-26
7993 267 0.0015 -0.222785 -1.8758 0 -1.21184e-11 -5.00601e-12 0 0 3.15903e-26
10330 345 0.0015 -0.0666107 -1.87531 0 5.62008e-13 -2.89964e-12 0 0 1.51072e-26
6003 201 0.0015 0.496967 -1.87498 0 -2.07479e-12 -5.5193e-12 0 5.99535e-21 4.02696e-26
1480 50 0.0015 0.576901 -1.87431 0 1.7491e-12 1.43433e-12 0 0 1.20262e-26
3531 118 0.0015 0.660812 -1.87519 0 -9.97069e-12 -4.90759e-12 0 1.57149e-20 5.28883e-26
2649 89 0.0015 -0.600679 -1.87207 0 6.49998e-12 -5.17203e-12 0 1.59781e-20 4.49471e-26
10299 344 0.0015 -0.484893 -1.87215 0 -1.83542e-12 5.07426e-12 0 0 8.6056e-27
10298 344 0.0015 -0.482069 -1.87306 0 -4.28372e-12 -3.85321e-12 0 0 7.26403e-27
10297 344 0.0015 -0.479245 -1.87396 0 6.52583e-12 7.7807e-13 0 0 1.47088e-26
6082 203 0.0015 -0.425558 -1.87252 0 3.53345e-12 1.75771e-11 0 0 1.40094e-26
6081 203 0.0015 -0.423741 -1.87338 0 -7.69169e-12 -1.73583e-11 0 0 2.49875e-26
7997 267 0.0015 -0.232089 -1.87228 0 -5.64517e-12 -5.33916e-12 0 1.00459e-20 2.97538e-26
7996 267 0.0015 -0.229763 -1.87316 0 1.26365e-11 6.13733e-12 0 1.00459e-20 3.4111e-26
10331 345 0.0015 -0.0672875 -1.8722 0 -2.8175e-12 1.29451e-11 0 1.57149e-20 8.96497e-26
1956 66 0.0015 0.0132378 -1.87349 0 2.58729e-13 -2.92624e-12 0 5.20104e-21 4.00378e-26
8045 269 0.0015 0.152704 -1.87369 0 -8.00206e-14 2.41263e-13 0 0 2.14328e-26
10202 341 0.0015 0.289307 -1.87202 0 -9.05266e-14 1.07663e-12 0 0 4.78904e-27
4531 152 0.0015 0.366216 -1.8733 0 -8.47635e-14 4.94494e-13 0 0 6.09814e-28
10268 343 0.0015 0.422731 -1.8732 0 7.67104e-13 3.5313e-12 0 1.24237e-20 9.75418e-27
3530 118 0.0015 0.66335 -1.87327 0 3.83573e-12 1.79503e-12 0 3.14298e-20 3.29464e-26
10301 344 0.0015 -0.490541 -1.87033 0 3.74408e-12 4.12002e-12 0 0 2.28663e-27
10300 344 0.0015 -0.487717 -1.87124 0 4.08321e-13 -4.72313e-12 0 0 1.02107e-26
6084 203 0.0015 -0.429191 -1.8708 0 8.80868e-12 -1.82145e-11 0 4.96948e-20 7.0487e-26
6083 203 0.0015 -0.427374 -1.87166 0 -7.27178e-12 6.81285e-12 0 2.48474e-20 4.40944e-26
6035 202 0.0015 -0.332631 -1.87017 0 3.36824e-12 -5.40389e-12 0 0 5.91816e-26
7999 267 0.0015 -0.23674 -1.87052 0 -7.08005e-13 6.07812e-12 0 0 4.65667e-27
7998 267 0.0015 -0.234415 -1.8714 0 -2.1728e-12 1.0356e-12 0 1.00459e-20 4.79227e-27
1481 50 0.0015 0.579128 -1.8714 0 -4.50137e-12 -4.67909e-12 0 0 2.11912e-26
3529 118 0.0015 0.665887 -1.87136 0 4.87846e-12 4.22541e-12 0 3.14298e-20 2.229e-26
2650 89 0.0015 -0.6044 -1.86922 0 -8.13253e-12 6.52571e-12 0 1.06521e-20 7.4134e-26
10303 344 0.0015 -0.49619 -1.86852 0 -1.02615e-11 1.37415e-12 0 0 4.83575e-26
10302 344 0.0015 -0.493366 -1.86943 0 5.03523e-12 -4.03443e-12 0 0 4.03047e-26
6087 203 0.0015 -0.434641 -1.86821 0 1.75228e-11 7.45432e-12 0 0 4.82689e-26
6085 203 0.0015 -0.431008 -1.86994 0 -3.99185e-12 8.75277e-12 0 4.96948e-20 2.67281e-26
6086 203 0.0015 -0.432824 -1.86908 0 -9.08777e-12 -1.24475e-12 0 2.48474e-20 3.70567e-26
8001 267 0.0015 -0.241392 -1.86876 0 3.38215e-12 -1.28834e-12 0 1.00459e-20 5.70272e-27
8000 267 0.0015 -0.239066 -1.86964 0 -1.72209e-12 -4.13835e-12 0 0 9.78227e-27
8012 268 0.0015 -0.171924 -1.86923 0 -1.78235e-12 -4.96128e-12 0 3.80484e-21 5.28901e-26
10332 345 0.0015 -0.0679644 -1.86909 0 2.98512e-12 -1.30523e-11 0 1.57149e-20 9.06596e-26
1957 66 0.0015 0.0127576 -1.86871 0 -9.89716e-13 1.0218e-11 0 0 7.03158e-26
10269 343 0.0015 0.423451 -1.86924 0 -9.01131e-13 -1.57001e-12 0 2.48474e-20 1.64746e-27
1482 50 0.0015 0.581354 -1.86848 0 3.84556e-12 3.22906e-12 0 0 1.33232e-26
3528 118 0.0015 0.668424 -1.86944 0 -3.91379e-12 -3.50827e-12 0 1.57149e-20 1.99177e-26
2651 89 0.0015 -0.608121 -1.86636 0 6.74943e-12 -5.44951e-12 0 5.32605e-21 5.95075e-26
10305 344 0.0015 -0.501838 -1.8667 0 -1.28648e-12 -4.77718e-13 0 0 3.7491e-27
10304 344 0.0015 -0.499014 -1.86761 0 5.64808e-12 5.69905e-13 0 0 1.18569e-26
6089 203 0.0015 -0.438274 -1.86649 0 -1.48881e-12 2.28407e-11 0 0 3.47692e-26
6088 203 0.0015 -0.436457 -1.86735 0 -9.34377e-12 -2.13485e-11 0 0 2.65033e-26
8004 267 0.0015 -0.248369 -1.86612 0 8.78928e-12 -9.01727e-13 0 3.01377e-20 2.52176e-26
8003 267 0.0015 -0.246044 -1.867 0 -7.09287e-12 1.12154e-13 0 3.01377e-20 1.62344e-26
8002 267 0.0015 -0.243718 -1.86788 0 2.4215e-12 1.69285e-12 0 2.00918e-20 5.03973e-27
8046 269 0.0015 0.152008 -1.86695 0 -9.11473e-13 8.87774e-12 0 0 9.32115e-26
6004 201 0.0015 0.499982 -1.86721 0 2.27738e-12 5.89686e-12 0 5.99535e-21 4.63211e-26
3527 118 0.0015 0.670962 -1.86752 0 -5.41629e-12 -4.54963e-12 0 1.57149e-20 5.09815e-26
10307 344 0.0015 -0.507486 -1.86489 0 7.65551e-13 1.1764e-12 0 0 8.02105e-27
10306 344 0.0015 -0.504662 -1.8658 0 -2.96773e-12 1.39504e-12 0 0 5.30144e-27
6090 203 0.0015 -0.440091 -1.86563 0 2.43848e-12 -8.67832e-12 0 0 1.9594e-26
8006 267 0.0015 -0.253021 -1.86436 0 7.49003e-12 6.02339e-12 0 1.00459e-20 1.35602e-26
8005 267 0.0015 -0.250695 -1.86524 0 -9.78602e-12 -9.31261e-13 0 2.00918e-20 2.68893e-26
10333 345 0.0015 -0.0686412 -1.86599 0 -3.79835e-13 -1.39007e-13 0 1.57149e-20 3.06986e-26
10203 341 0.0015 0.288506 -1.8653 0 1.32662e-13 -1.90235e-12 0 0 4.67081e-27
4532 152 0.0015 0.364868 -1.86469 0 -5.69036e-13 3.85346e-12 0 0 4.7454e-26
10270 343 0.0015 0.424172 -1.86529 0 1.63656e-12 4.52913e-12 0 2.48474e-20 1.7121e-26
1483 50 0.0015 0.58358 -1.86557 0 -7.04746e-12 -6.74649e-12 0 0 6.69164e-26
3526 118 0.0015 0.673499 -1.86561 0 1.5647e-11 1.40583e-11 0 3.14298e-20 2.08793e-25
2652 89 0.0015 -0.611842 -1.86351 0 1.14766e-12 -9.01573e-13 0 0 2.57321e-26
10310 344 0.0015 -0.515959 -1.86217 0 -6.45629e-12 3.69378e-12 0 1.68424e-20 2.33037e-26
10309 344 0.0015 -0.513134 -1.86307 0 7.26393e-12 -7.04522e-13 0 0 2.26765e-26
10308 344 0.0015 -0.51031 -1.86398 0 -1.48259e-12 -2.88672e-12 0 0 8.66827e-27
6036 202 0.0015 -0.337434 -1.86244 0 -2.50414e-13 2.38542e-13 0 0 1.59072e-26
8008 267 0.0015 -0.257673 -1.8626 0 -3.28809e-12 1.37625e-11 0 0 2.22582e-26
8007 267 0.0015 -0.255347 -1.86348 0 4.10285e-14 -1.14319e-11 0 0 1.44605e-26
10334 345 0.0015 -0.0693181 -1.86288 0 -1.01145e-12 5.91058e-12 0 0 1.83939e-26
1958 66 0.0015 0.0122775 -1.86393 0 7.62753e-13 -8.2479e-12 0 0 4.88258e-26
1484 50 0.0015 0.585807 -1.86266 0 6.8385e-12 7.05904e-12 0 0 6.73559e-26
3525 118 0.0015 0.676036 -1.86369 0 -1.5647e-11 -1.40583e-11 0 3.14298e-20 2.08793e-25
2653 89 0.0015 -0.615563 -1.86065 0 -3.01577e-12 2.86937e-12 0 0 1.88399e-26
10312 344 0.0015 -0.521607 -1.86035 0 5.38911e-13 2.812e-12 0 3.36849e-20 1.28648e-27
10311 344 0.0015 -0.518783 -1.86126 0 2.59242e-12 -4.11793e-12 0 3.36849e-20 6.84431e-27
8010 267 0.0015 -0.262324 -1.86085 0 1.11379e-12 3.37179e-12 0 0 1.57496e-29
8009 267 0.0015 -0.259998 -1.86172 0 -1.35915e-13 -1.03764e-11 0 0 7.96543e-27
8047 269 0.0015 0.151313 -1.86021 0 1.07227e-12 -9.7699e-12 0 0 1.02435e-25
10271 343 0.0015 0.424893 -1.86133 0 -1.29576e-12 -3.67982e-12 0 1.24237e-20 1.61129e-26
3524 118 0.0015 0.678573 -1.86178 0 5.41629e-12 4.54963e-12 0 1.57149e-20 5.09815e-26
10314 344 0.0015 -0.527255 -1.85854 0 -3.89546e-12 2.86484e-12 0 0 8.68515e-27
10313 344 0.0015 -0.524431 -1.85944 0 7.88201e-13 -2.38295e-12 0 1.68424e-20 4.28317e-27
10335 345 0.0015 -0.0699949 -1.85978 0 5.72908e-13 -4.56379e-14 0 0 5.18073e-27
1959 66 0.0015 0.0117974 -1.85915 0 -3.53012e-13 4.69386e-12 0 0 1.61442e-26
4771 160 0.0015 0.0785585 -1.85825 0 3.11574e-14 -1.19125e-12 0 0 3.6295e-27
10204 341 0.0015 0.287705 -1.85857 0 5.93556e-14 4.12405e-13 0 0 2.65234e-28
6005 201 0.0015 0.502997 -1.85945 0 -1.72955e-12 -4.41851e-12 0 1.19907e-20 2.9923e-26
1485 50 0.0015 0.588033 -1.85975 0 3.36645e-12 5.31985e-12 0 0 7.04012e-26
3523 118 0.0015 0.681111 -1.85986 0 3.91379e-12 3.50827e-12 0 1.57149e-20 1.99177e-26
2654 89 0.0015 -0.619284 -1.8578 0 -1.38361e-12 1.14542e-13 0 5.32605e-21 3.17406e-27
10316 344 0.0015 -0.532903 -1.85672 0 -1.17112e-11 2.79802e-12 0 0 6.08023e-26
10315 344 0.0015 -0.530079 -1.85763 0 7.03361e-12 -2.58726e-12 0 0 2.60192e-26
8013 268 0.0015 -0.167482 -1.85688 0 1.59532e-12 4.41723e-12 0 3.80484e-21 4.53446e-26
10336 345 0.0015 -0.0706718 -1.85667 0 -8.18306e-13 -2.42957e-12 0 0 2.62786e-27
4533 152 0.0015 0.36352 -1.85607 0 1.07695e-12 -7.25184e-12 0 0 6.77095e-26
10272 343 0.0015 0.425614 -1.85738 0 6.80546e-13 8.66308e-13 0 1.24237e-20 9.47508e-28
1486 50 0.0015 0.59026 -1.85684 0 -3.36645e-12 -5.31985e-12 0 0 7.04012e-26
3522 118 0.0015 0.683648 -1.85795 0 -4.87846e-12 -4.22541e-12 0 3.14298e-20 2.229e-26
3521 118 0.0015 0.686185 -1.85603 0 -3.83573e-12 -1.79503e-12 0 3.14298e-20 3.29464e-26
2655 89 0.0015 -0.623004 -1.85494 0 2.3854e-12 -7.03112e-13 0 5.32605e-21 3.84566e-27
10318 344 0.0015 -0.538552 -1.85491 0 -4.43792e-13 4.15839e-13 0 3.36849e-20 1.13836e-27
10317 344 0.0015 -0.535727 -1.85581 0 7.80364e-12 -1.83223e-12 0 1.68424e-20 4.0505e-26
6037 202 0.0015 -0.342237 -1.85471 0 -5.51304e-13 1.13577e-12 0 0 6.75558e-27
1960 66 0.0015 0.0113172 -1.85437 0 -1.1274e-14 -1.22642e-12 0 0 3.79935e-27
3520 118 0.0015 0.688722 -1.85412 0 9.97069e-12 4.90759e-12 0 1.57149e-20 5.28883e-26
2656 89 0.0015 -0.626725 -1.85209 0 -4.27332e-13 -1.08127e-12 0 5.32605e-21 2.46618e-27
10320 344 0.0015 -0.5442 -1.85309 0 2.88033e-13 1.12728e-13 0 1.68424e-20 4.73589e-29
10319 344 0.0015 -0.541376 -1.854 0 -8.68904e-13 -2.54933e-13 0 3.36849e-20 2.61242e-28
10337 345 0.0015 -0.0713486 -1.85356 0 2.26243e-12 -4.17475e-12 0 0 2.35568e-26
8048 269 0.0015 0.150617 -1.85348 0 -2.36676e-13 1.51714e-12 0 0 2.38236e-26
10273 343 0.0015 0.426335 -1.85342 0 -1.64021e-12 -5.92152e-12 0 2.48474e-20 3.11523e-26
1487 50 0.0015 0.592486 -1.85392 0 -6.8385e-12 -7.05904e-12 0 0 6.73559e-26
3519 118 0.0015 0.69126 -1.8522 0 -3.94103e-12 2.32464e-13 0 0 2.62536e-26
10338 345 0.0015 -0.0720254 -1.85046 0 -3.40203e-12 1.14226e-11 0 0 6.35276e-26
10205 341 0.0015 0.286904 -1.85184 0 -2.25484e-13 1.66755e-12 0 3.6872e-21 5.50838e-27
6006 201 0.0015 0.506013 -1.85168 0 8.39232e-13 2.02805e-12 0 1.19907e-20 6.17803e-27
1488 50 0.0015 0.594712 -1.85101 0 7.04746e-12 6.74649e-12 0 0 6.69164e-26
3518 118 0.0015 0.693797 -1.85028 0 -5.98114e-12 -5.61814e-12 0 0 3.66786e-26
2657 89 0.0015 -0.630446 -1.84923 0 -4.94656e-13 1.94227e-12 0 5.32605e-21 1.90259e-27
1961 66 0.0015 0.0108371 -1.84959 0 8.37993e-16 9.36263e-13 0 0 2.65441e-27
4772 160 0.0015 0.0782973 -1.84905 0 -4.96628e-14 1.96783e-12 0 2.71488e-21 5.17174e-27
10274 343 0.0015 0.427056 -1.84946 0 1.09015e-12 3.72165e-12 0 2.48474e-20 3.22245e-26
1489 50 0.0015 0.596939 -1.8481 0 -3.84556e-12 -3.22906e-12 0 0 1.33232e-26
3517 118 0.0015 0.696334 -1.84837 0 7.03189e-12 3.12439e-12 0 0 3.46663e-26
2658 89 0.0015 -0.634167 -1.84638 0 -1.90407e-12 3.46451e-13 0 5.32605e-21 6.44499e-27
6038 202 0.0015 -0.34704 -1.84697 0 -1.35169e-12 1.9513e-12 0 0 1.07e-26
10339 345 0.0015 -0.0727023 -1.84735 0 2.79496e-12 -9.62044e-12 0 0 4.95471e-26
8049 269 0.0015 0.149922 -1.84674 0 -3.92816e-13 4.03994e-12 0 0 1.61039e-26
6541 219 0.0015 0.213251 -1.84656 0 4.35188e-14 -3.32203e-13 0 0 2.21071e-28
4534 152 0.0015 0.362172 -1.84745 0 -1.02111e-13 8.94111e-13 0 0 3.09029e-26
3516 118 0.0015 0.698871 -1.84645 0 1.75661e-12 4.8746e-12 0 0 3.06159e-26
8014 268 0.0015 -0.163039 -1.84452 0 -5.03268e-13 -1.38027e-12 0 1.90242e-21 8.32844e-27
10340 345 0.0015 -0.0733791 -1.84424 0 -2.23989e-12 5.9455e-12 0 0 1.74653e-26
1962 66 0.0015 0.010357 -1.84481 0 4.5796e-13 -5.05299e-12 0 0 2.09425e-26
10206 341 0.0015 0.286103 -1.84511 0 5.19742e-13 -4.7795e-12 0 7.37441e-21 2.35544e-26
10275 343 0.0015 0.427777 -1.84551 0 1.69028e-12 1.02345e-11 0 1.24237e-20 9.30635e-26
1490 50 0.0015 0.599165 -1.84519 0 4.50137e-12 4.67909e-12 0 0 2.11912e-26
3515 118 0.0015 0.701409 -1.84454 0 -5.65006e-12 -6.21337e-12 0 0 3.45768e-26
2659 89 0.0015 -0.637888 -1.84352 0 4.44866e-12 -3.08154e-12 0 5.32605e-21 1.97521e-26
6007 201 0.0015 0.509028 -1.84391 0 1.81656e-13 8.19399e-13 0 5.99535e-21 6.92291e-27
1491 50 0.0015 0.601391 -1.84228 0 -1.7491e-12 -1.43433e-12 0 0 1.20262e-26
3514 118 0.0015 0.703946 -1.84262 0 4.64163e-12 3.41234e-12 0 0 1.48687e-26
2660 89 0.0015 -0.641609 -1.84066 0 -1.87429e-12 1.68033e-12 0 0 1.42498e-26
10341 345 0.0015 -0.074056 -1.84114 0 1.56538e-12 -2.84186e-12 0 1.57149e-20 8.18217e-27
1963 66 0.0015 0.00987681 -1.84004 0 -8.23909e-13 8.29891e-12 0 5.20104e-21 4.69213e-26
10276 343 0.0015 0.428498 -1.84155 0 -1.69028e-12 -1.02345e-11 0 1.24237e-20 9.30635e-26
3513 118 0.0015 0.706483 -1.84071 0 -5.15736e-12 -4.07871e-12 0 0 1.9086e-26
6039 202 0.0015 -0.351842 -1.83924 0 1.63929e-12 -2.47138e-12 0 0 1.2619e-26
10342 345 0.0015 -0.0747328 -1.83803 0 6.26209e-13 -3.16874e-12 0 1.57149e-20 9.59873e-27
4773 160 0.0015 0.0780361 -1.83985 0 4.506e-14 -1.75629e-12 0 5.42976e-21 3.99726e-27
8050 269 0.0015 0.149226 -1.84 0 4.20686e-13 -3.67785e-12 0 0 1.41527e-26
6542 219 0.0015 0.21269 -1.83947 0 -4.4385e-13 4.97878e-12 0 0 4.31699e-26
10207 341 0.0015 0.285302 -1.83839 0 -4.19836e-13 3.5601e-12 0 7.37441e-21 1.84956e-26
4535 152 0.0015 0.360823 -1.83883 0 -4.84335e-13 3.05191e-12 0 0 1.27338e-26
1492 50 0.0015 0.603618 -1.83936 0 -1.61577e-12 -1.50466e-12 0 0 2.41318e-27
3512 118 0.0015 0.70902 -1.83879 0 7.64922e-13 1.66872e-12 0 0 1.25041e-26
2661 89 0.0015 -0.64533 -1.83781 0 -2.57674e-12 1.68162e-12 0 5.32605e-21 7.86479e-27
10277 343 0.0015 0.429219 -1.8376 0 -1.09015e-12 -3.72165e-12 0 2.48474e-20 3.22245e-26
6008 201 0.0015 0.512043 -1.83614 0 -1.79298e-12 -5.07621e-12 0 5.99535e-21 3.93751e-26
1493 50 0.0015 0.605844 -1.83645 0 1.66993e-12 -2.01912e-13 0 0 1.32448e-27
3511 118 0.0015 0.711558 -1.83688 0 1.6514e-12 6.79125e-13 0 0 2.63437e-27
2662 89 0.0015 -0.649051 -1.83495 0 3.67603e-12 -2.94588e-12 0 5.32605e-21 1.44493e-26
10343 345 0.0015 -0.0754097 -1.83493 0 -1.74716e-12 3.90473e-12 0 3.14298e-20 1.02958e-26
1964 66 0.0015 0.00939668 -1.83526 0 3.93823e-13 -3.53684e-12 0 5.20104e-21 2.98883e-26
2663 89 0.0015 -0.652772 -1.8321 0 -6.00426e-12 4.75289e-12 0 5.32605e-21 4.38083e-26
10171 340 0.0015 -0.234195 -1.83312 0 -1.41795e-13 2.82227e-13 0 0 2.11852e-28
8015 268 0.0015 -0.158597 -1.83216 0 -3.92997e-13 -1.06701e-12 0 1.90242e-21 4.38497e-27
8051 269 0.0015 0.14853 -1.83326 0 -1.55476e-13 7.34461e-13 0 3.6872e-21 3.56581e-27
6543 219 0.0015 0.212128 -1.83239 0 6.3348e-13 -7.24308e-12 0 0 5.63675e-26
10278 343 0.0015 0.429939 -1.83364 0 1.64021e-12 5.92152e-12 0 2.48474e-20 3.11523e-26
1494 50 0.0015 0.60807 -1.83354 0 -2.68842e-13 2.3086e-12 0 0 2.10155e-27
6040 202 0.0015 -0.356645 -1.83151 0 -8.78339e-13 1.29726e-12 0 0 3.21735e-27
10344 345 0.0015 -0.0760865 -1.83182 0 2.54824e-12 -7.32047e-12 0 1.57149e-20 4.15857e-26
1965 66 0.0015 0.00891654 -1.83048 0 -8.78643e-14 5.46415e-13 0 1.04021e-20 4.93564e-27
4774 160 0.0015 0.0777749 -1.83066 0 -1.99594e-14 8.45795e-13 0 5.42976e-21 2.50095e-27
10208 341 0.0015 0.284501 -1.83166 0 5.18064e-13 -3.5231e-12 0 3.6872e-21 1.8204e-26
4536 152 0.0015 0.359475 -1.83021 0 -1.1723e-13 9.22541e-13 0 0 1.22387e-26
1495 50 0.0015 0.610297 -1.83063 0 -9.2202e-13 -3.03293e-12 0 0 4.49941e-27
2664 89 0.0015 -0.656493 -1.82924 0 8.93086e-12 -6.05265e-12 0 0 7.55784e-26
10345 345 0.0015 -0.0767633 -1.82871 0 -3.80234e-12 1.51849e-11 0 1.57149e-20 1.09927e-25
10279 343 0.0015 0.43066 -1.82968 0 -6.80546e-13 -8.66308e-13 0 1.24237e-20 9.47508e-28
6009 201 0.0015 0.515058 -1.82837 0 2.49426e-12 6.7444e-12 0 1.19907e-20 6.00566e-26
2665 89 0.0015 -0.660213 -1.82639 0 -7.20574e-12 3.9075e-12 0 0 4.79854e-26
10172 340 0.0015 -0.238704 -1.82673 0 1.59989e-13 -4.5247e-13 0 6.39056e-21 2.6044e-28
8052 269 0.0015 0.147835 -1.82652 0 -4.93617e-14 1.43431e-12 0 3.6872e-21 2.06516e-27
1496 50 0.0015 0.612523 -1.82772 0 1.66313e-12 4.14029e-12 0 0 1.01278e-26
10346 345 0.0015 -0.0774402 -1.82561 0 2.94663e-12 -1.21975e-11 0 0 8.11524e-26
1966 66 0.0015 0.0084364 -1.8257 0 1.24838e-12 -1.27733e-11 0 1.04021e-20 1.71585e-25
6544 219 0.0015 0.211567 -1.8253 0 -1.21721e-13 9.0563e-13 0 0 1.90879e-26
10209 341 0.0015 0.2837 -1.82493 0 -1.04792e-12 7.64392e-12 0 3.6872e-21 5.83164e-26
10280 343 0.0015 0.431381 -1.82573 0 1.29576e-12 3.67982e-12 0 1.24237e-20 1.61129e-26
1497 50 0.0015 0.614749 -1.8248 0 7.06002e-13 -2.02892e-12 0 6.81478e-21 1.01413e-26
2666 89 0.0015 -0.663934 -1.82353 0 3.69286e-13 1.11636e-12 0 0 2.07534e-26
6041 202 0.0015 -0.361448 -1.82377 0 1.31969e-12 -2.07475e-12 0 2.74394e-21 9.46445e-27
10347 345 0.0015 -0.078117 -1.8225 0 -2.3879e-12 1.06523e-11 0 0 5.80598e-26
2667 89 0.0015 -0.667655 -1.82068 0 2.40319e-12 -2.7515e-12 0 0 1.22223e-26
10173 340 0.0015 -0.243212 -1.82034 0 9.29142e-14 6.87567e-14 0 6.39056e-21 9.55027e-29
1967 66 0.0015 0.00795626 -1.82092 0 -1.6616e-12 1.72497e-11 0 1.04021e-20 2.17832e-25
4775 160 0.0015 0.0775136 -1.82146 0 7.28663e-17 -2.53266e-13 0 2.71488e-21 4.29132e-28
4537 152 0.0015 0.358127 -1.82159 0 7.17049e-13 -4.97553e-12 0 0 3.19681e-26
10281 343 0.0015 0.432102 -1.82177 0 -1.63656e-12 -4.52913e-12 0 2.48474e-20 1.7121e-26
6010 201 0.0015 0.518074 -1.8206 0 -1.25002e-12 -3.40564e-12 0 1.19907e-20 2.65003e-26
1498 50 0.0015 0.616976 -1.82189 0 -4.50319e-12 -3.29658e-12 0 6.81478e-21 1.71331e-26
8016 268 0.0015 -0.154154 -1.81981 0 6.19662e-13 1.67212e-12 0 1.90242e-21 6.10263e-27
10348 345 0.0015 -0.0787939 -1.81939 0 2.43192e-12 -1.34695e-11 0 0 8.28612e-26
8053 269 0.0015 0.147139 -1.81978 0 -3.6605e-14 -5.01183e-13 0 3.6872e-21 1.8636e-27
6545 219 0.0015 0.211005 -1.81821 0 -1.35883e-13 2.28322e-12 0 3.51396e-21 6.36221e-27
10210 341 0.0015 0.282899 -1.8182 0 8.80906e-13 -6.42777e-12 0 3.6872e-21 4.69616e-26
1499 50 0.0015 0.619202 -1.81898 0 4.74896e-12 5.14564e-12 0 6.81478e-21 2.49409e-26
2668 89 0.0015 -0.671376 -1.81782 0 2.06506e-12 -8.73193e-13 0 0 1.02268e-26
6042 202 0.0015 -0.366251 -1.81604 0 -1.60337e-12 2.57969e-12 0 2.74394e-21 1.2153e-26
10349 345 0.0015 -0.0794707 -1.81629 0 -9.95e-13 7.66165e-12 0 0 3.82531e-26
1968 66 0.0015 0.00747613 -1.81614 0 9.11714e-13 -9.53401e-12 0 5.20104e-21 6.57987e-26
10282 343 0.0015 0.432823 -1.81781 0 9.01131e-13 1.57001e-12 0 2.48474e-20 1.64746e-27
1500 50 0.0015 0.621428 -1.81607 0 -2.00451e-12 -2.46844e-12 0 0 1.02866e-26
2669 89 0.0015 -0.675097 -1.81497 0 -8.43629e-13 2.11571e-13 0 0 1.47256e-26
5941 199 0.0015 0.740778 -1.81551 0 4.27217e-13 1.73723e-12 0 0 8.53981e-27
2670 89 0.0015 -0.678818 -1.81211 0 -1.48871e-12 1.25409e-12 0 0 4.92611e-27
10174 340 0.0015 -0.24772 -1.81396 0 1.41311e-13 -1.5448e-13 0 6.39056e-21 3.20093e-28
10350 345 0.0015 -0.0801475 -1.81318 0 1.95608e-14 -1.25742e-12 0 0 1.34204e-27
4776 160 0.0015 0.0772524 -1.81226 0 -4.09667e-14 1.68818e-12 0 0 4.71225e-27
8054 269 0.0015 0.146443 -1.81304 0 2.9241e-13 -2.30649e-12 0 0 7.20509e-27
4538 152 0.0015 0.356779 -1.81297 0 -5.38877e-13 3.76236e-12 0 0 2.38191e-26
10283 343 0.0015 0.433544 -1.81386 0 -7.67104e-13 -3.5313e-12 0 1.24237e-20 9.75418e-27
6011 201 0.0015 0.521089 -1.81283 0 -1.09061e-12 -2.69639e-12 0 5.99535e-21 2.32834e-26
1969 66 0.0015 0.00699599 -1.81136 0 -6.96845e-13 6.95489e-12 0 0 3.25914e-26
6546 219 0.0015 0.210443 -1.81113 0 -1.85933e-13 1.6355e-12 0 3.51396e-21 1.05791e-26
10211 341 0.0015 0.282098 -1.81148 0 -5.85443e-13 4.17025e-12 0 7.37441e-21 1.6935e-26
6043 202 0.0015 -0.371054 -1.8083 0 3.88026e-13 -6.32938e-13 0 2.74394e-21 4.23855e-27
10284 343 0.0015 0.434265 -1.8099 0 6.77948e-14 1.92314e-12 0 0 1.01326e-26
10175 340 0.0015 -0.252228 -1.80757 0 4.11559e-13 -8.53978e-13 0 6.39056e-21 3.88524e-27
8017 268 0.0015 -0.149712 -1.80745 0 -1.79812e-13 -4.68427e-13 0 3.80484e-21 1.84988e-27
1970 66 0.0015 0.00651585 -1.80658 0 6.3287e-13 -6.13722e-12 0 0 2.58873e-26
8055 269 0.0015 0.145748 -1.8063 0 -4.37627e-13 3.93302e-12 0 0 1.47507e-26
5942 199 0.0015 0.743061 -1.80618 0 -3.34034e-13 -1.37651e-12 0 0 8.9101e-27
6547 219 0.0015 0.209882 -1.80404 0 6.80812e-13 -7.75508e-12 0 3.51396e-21 7.06474e-26