ITEM: TIMESTEP
100620
ITEM: NUMBER OF ATOMS
10500
ITEM: BOX BOUNDS pp pp pp
-1.0249999999999999e+00 1.0249999999999999e+00
-2.0000000000000000e+00 2.0000000000000000e+00
-5.0000000000000003e-02 5.0000000000000003e-02
ITEM: ATOMS id type radius x y z fx fy fz c_bendingE c_stretchingE
10321 345 0.0015 -0.0605191 -1.90326 0 -1.26344e-12 5.11008e-12 0 0 2.44509e-26
6031 202 0.0015 -0.31342 -1.90111 0 7.5444e-13 -1.23854e-12 0 2.74394e-21 5.31808e-27
10322 345 0.0015 -0.061196 -1.90016 0 2.69664e-12 -1.15731e-11 0 0 6.31524e-26
8041 269 0.0015 0.155487 -1.90065 0 -2.66393e-13 2.49788e-12 0 0 1.18752e-26
10261 343 0.0015 0.417684 -1.90089 0 2.80928e-13 9.34797e-13 0 0 1.05107e-27
1471 50 0.0015 0.556864 -1.90052 0 6.99921e-13 1.31633e-12 0 0 2.20271e-27
10323 345 0.0015 -0.0618728 -1.89705 0 -3.13605e-12 1.62006e-11 0 0 1.24849e-25
1951 66 0.0015 0.0156385 -1.89738 0 -6.03584e-13 5.51827e-12 0 0 4.11091e-26
10262 343 0.0015 0.418405 -1.89694 0 2.25496e-13 3.32396e-12 0 1.24237e-20 2.15187e-26
1472 50 0.0015 0.559091 -1.8976 0 2.40728e-12 2.61636e-12 0 0 2.77744e-26
2641 89 0.0015 -0.570912 -1.89491 0 -1.94487e-12 1.43908e-12 0 5.32605e-21 7.62369e-27
1473 50 0.0015 0.561317 -1.89469 0 -4.4108e-12 -6.76462e-12 0 0 3.4991e-26
2642 89 0.0015 -0.574633 -1.89206 0 4.22673e-12 -2.89667e-12 0 5.32605e-21 1.71047e-26
6032 202 0.0015 -0.318223 -1.89337 0 -9.22347e-13 1.51985e-12 0 5.48788e-21 5.5894e-27
10324 345 0.0015 -0.0625496 -1.89394 0 1.70435e-12 -1.31196e-11 0 0 9.5793e-26
1952 66 0.0015 0.0151583 -1.8926 0 7.94989e-13 -6.62844e-12 0 0 4.27939e-26
8042 269 0.0015 0.154791 -1.89391 0 3.59937e-13 -3.08756e-12 0 0 1.2544e-26
10263 343 0.0015 0.419126 -1.89298 0 -1.7692e-12 -1.25052e-11 0 1.24237e-20 9.81496e-26
3540 118 0.0015 0.637977 -1.89243 0 4.31517e-12 4.36451e-12 0 0 3.25771e-26
6061 203 0.0015 -0.387409 -1.89062 0 -5.05362e-12 1.63098e-12 0 0 1.54819e-26
10325 345 0.0015 -0.0632265 -1.89084 0 8.82926e-13 2.91215e-12 0 0 1.00159e-26
10231 342 0.0015 0.215 -1.89 0 1.33395e-12 0 0 0 3.40887e-28
10232 342 0.0015 0.21569 -1.89 0 -5.79314e-13 0 0 0 4.49918e-28
10233 342 0.0015 0.216379 -1.89 0 -4.02098e-12 0 0 0 2.15262e-27
10234 342 0.0015 0.217069 -1.89 0 7.60664e-12 0 0 0 5.65243e-27
10235 342 0.0015 0.217759 -1.89 0 -9.05526e-12 0 0 0 7.86763e-27
10236 342 0.0015 0.218448 -1.89 0 1.18078e-11 0 0 0 1.38971e-26
10237 342 0.0015 0.219138 -1.89 0 -1.61548e-11 0 0 0 2.53683e-26
10238 342 0.0015 0.219828 -1.89 0 1.75314e-11 0 0 0 2.94718e-26
10239 342 0.0015 0.220517 -1.89 0 -1.63361e-11 0 0 0 2.55956e-26
10240 342 0.0015 0.221207 -1.89 0 1.77845e-11 0 0 0 3.06993e-26
10241 342 0.0015 0.221897 -1.89 0 -1.91609e-11 0 0 0 3.52105e-26
10242 342 0.0015 0.222586 -1.89 0 1.57204e-11 0 0 0 2.44026e-26
10243 342 0.0015 0.223276 -1.89 0 -1.32209e-11 0 0 0 1.67488e-26
10244 342 0.0015 0.223966 -1.89 0 1.55028e-11 0 0 0 2.34094e-26
10245 342 0.0015 0.224655 -1.89 0 -2.00302e-11 0 0 0 3.90344e-26
10246 342 0.0015 0.225345 -1.89 0 2.00302e-11 0 0 0 3.90344e-26
10247 342 0.0015 0.226034 -1.89 0 -1.55028e-11 0 0 0 2.34094e-26
10248 342 0.0015 0.226724 -1.89 0 1.32209e-11 0 0 0 1.67488e-26
10249 342 0.0015 0.227414 -1.89 0 -1.57204e-11 0 0 0 2.44026e-26
10250 342 0.0015 0.228103 -1.89 0 1.91609e-11 0 0 0 3.52105e-26
10251 342 0.0015 0.228793 -1.89 0 -1.77845e-11 0 0 0 3.06993e-26
10252 342 0.0015 0.229483 -1.89 0 1.63361e-11 0 0 0 2.55956e-26
10253 342 0.0015 0.230172 -1.89 0 -1.75314e-11 0 0 0 2.94718e-26
10254 342 0.0015 0.230862 -1.89 0 1.61548e-11 0 0 0 2.53683e-26
10255 342 0.0015 0.231552 -1.89 0 -1.18078e-11 0 0 0 1.38971e-26
10256 342 0.0015 0.232241 -1.89 0 9.05526e-12 0 0 0 7.86763e-27
10257 342 0.0015 0.232931 -1.89 0 -7.60664e-12 0 0 0 5.65243e-27
10258 342 0.0015 0.233621 -1.89 0 4.02098e-12 0 0 0 2.15262e-27
10259 342 0.0015 0.23431 -1.89 0 5.79314e-13 0 0 0 4.49918e-28
10260 342 0.0015 0.235 -1.89 0 -1.33395e-12 0 0 0 3.40887e-28
6001 201 0.0015 0.490936 -1.89052 0 -8.80232e-14 -2.1263e-13 0 0 1.22527e-28
1474 50 0.0015 0.563543 -1.89178 0 -9.22833e-13 1.66079e-12 0 6.81478e-21 1.47246e-26
3539 118 0.0015 0.640514 -1.89051 0 -6.84091e-12 -8.9247e-12 0 0 5.26151e-26
2643 89 0.0015 -0.578354 -1.8892 0 -3.15871e-12 1.63407e-12 0 1.06521e-20 1.03212e-26
6063 203 0.0015 -0.391043 -1.8889 0 -6.05276e-12 -1.0209e-11 0 0 1.74411e-26
6064 203 0.0015 -0.392859 -1.88804 0 2.85915e-12 1.69977e-11 0 0 7.3288e-27
6062 203 0.0015 -0.389226 -1.88976 0 1.08469e-11 1.75517e-13 0 0 2.65904e-26
10264 343 0.0015 0.419847 -1.88903 0 2.11543e-12 1.36219e-11 0 1.24237e-20 1.10754e-25
1475 50 0.0015 0.56577 -1.88887 0 6.04272e-12 4.80494e-12 0 6.81478e-21 3.28873e-26
3538 118 0.0015 0.643052 -1.8886 0 2.85586e-13 5.30111e-12 0 0 2.1627e-26
2644 89 0.0015 -0.582074 -1.88635 0 3.11336e-12 -1.35033e-12 0 5.32605e-21 8.91089e-27
6066 203 0.0015 -0.396492 -1.88631 0 -4.93519e-12 9.78968e-12 0 0 2.15275e-26
6065 203 0.0015 -0.394676 -1.88717 0 -1.07677e-12 -1.72027e-11 0 0 1.53268e-26
7981 267 0.0015 -0.194876 -1.88635 0 -3.2451e-12 2.66273e-13 0 0 6.76455e-27
10326 345 0.0015 -0.0639033 -1.88773 0 -1.11955e-12 -2.97746e-13 0 0 8.03026e-28
1953 66 0.0015 0.0146782 -1.88782 0 -3.18327e-13 2.12227e-12 0 0 3.07206e-27
8043 269 0.0015 0.154095 -1.88717 0 1.63824e-13 -2.33483e-12 0 3.6872e-21 1.68851e-26
3537 118 0.0015 0.645589 -1.88668 0 6.71358e-12 1.13532e-12 0 0 2.11026e-26
6068 203 0.0015 -0.400126 -1.88459 0 4.11931e-12 -9.31333e-12 0 4.96948e-20 1.94266e-26
6067 203 0.0015 -0.398309 -1.88545 0 9.41837e-13 6.30873e-12 0 2.48474e-20 2.37435e-26
6033 202 0.0015 -0.323025 -1.88564 0 -1.49339e-13 2.76081e-13 0 5.48788e-21 1.30998e-27
7983 267 0.0015 -0.199527 -1.8846 0 -2.48219e-12 -1.01307e-12 0 1.00459e-20 4.97738e-27
7982 267 0.0015 -0.197202 -1.88548 0 6.18386e-12 1.36465e-13 0 0 1.14564e-26
10327 345 0.0015 -0.0645802 -1.88463 0 9.28514e-13 -2.48167e-12 0 0 1.01811e-26
10265 343 0.0015 0.420568 -1.88507 0 -1.60268e-12 -1.03609e-11 0 0 6.14371e-26
1476 50 0.0015 0.567996 -1.88596 0 -6.76993e-12 -6.26984e-12 0 6.81478e-21 4.29742e-26
3536 118 0.0015 0.648126 -1.88476 0 -3.20563e-12 2.53784e-13 0 0 2.41658e-26
2645 89 0.0015 -0.585795 -1.88349 0 -7.04523e-12 4.26324e-12 0 1.06521e-20 5.03356e-26
6071 203 0.0015 -0.405575 -1.882 0 8.31453e-13 2.03362e-11 0 2.48474e-20 3.18049e-26
6070 203 0.0015 -0.403759 -1.88287 0 -7.44859e-12 -6.9122e-12 0 2.48474e-20 9.95007e-27
6069 203 0.0015 -0.401942 -1.88373 0 2.24563e-12 2.35825e-13 0 4.96948e-20 1.2726e-26
7985 267 0.0015 -0.204179 -1.88284 0 1.59429e-12 1.53576e-12 0 3.01377e-20 4.59929e-28
7984 267 0.0015 -0.201853 -1.88372 0 -1.276e-12 7.13671e-13 0 2.00918e-20 7.30953e-28
1954 66 0.0015 0.0141981 -1.88304 0 5.301e-13 -5.26741e-12 0 0 2.57612e-26
6002 201 0.0015 0.493952 -1.88275 0 -7.48281e-13 -2.05069e-12 0 5.99535e-21 1.35955e-26
1477 50 0.0015 0.570222 -1.88304 0 3.95877e-12 2.35317e-12 0 0 1.55437e-26
3535 118 0.0015 0.650663 -1.88285 0 -6.4263e-12 -6.18765e-12 0 0 4.26763e-26
2646 89 0.0015 -0.589516 -1.88064 0 7.12127e-12 -4.43207e-12 0 5.32605e-21 5.14281e-26
6073 203 0.0015 -0.409209 -1.88028 0 -1.23549e-11 -6.51365e-13 0 2.48474e-20 3.58745e-26
6072 203 0.0015 -0.407392 -1.88114 0 9.19763e-12 -1.45768e-11 0 2.48474e-20 5.92581e-26
7988 267 0.0015 -0.211156 -1.8802 0 4.89663e-12 -9.38035e-13 0 2.00918e-20 1.05307e-26
7987 267 0.0015 -0.208831 -1.88108 0 4.09282e-12 4.82875e-12 0 2.00918e-20 8.57286e-27
7986 267 0.0015 -0.206505 -1.88196 0 -5.29275e-12 -4.21547e-12 0 2.00918e-20 7.60205e-27
8011 268 0.0015 -0.176367 -1.88159 0 -1.54908e-13 -4.4719e-13 0 0 8.16814e-28
10328 345 0.0015 -0.065257 -1.88152 0 -2.06111e-12 1.03878e-11 0 0 5.63704e-26
8044 269 0.0015 0.1534 -1.88043 0 -4.94882e-13 5.57386e-12 0 7.37441e-21 2.95291e-26
10266 343 0.0015 0.421289 -1.88111 0 5.21328e-13 4.54609e-12 0 0 2.86155e-26
1478 50 0.0015 0.572449 -1.88013 0 -1.23268e-12 6.50246e-13 0 0 1.75576e-28
3534 118 0.0015 0.653201 -1.88093 0 1.08549e-11 6.7153e-12 0 1.57149e-20 7.13988e-26
10292 344 0.0015 -0.465124 -1.8785 0 5.20116e-12 1.09428e-12 0 0 1.06825e-26
10291 344 0.0015 -0.4623 -1.87941 0 -1.50579e-12 -6.49958e-13 0 0 1.25626e-27
6074 203 0.0015 -0.411025 -1.87942 0 8.75328e-12 5.10243e-12 0 2.48474e-20 1.02543e-26
6075 203 0.0015 -0.412842 -1.87856 0 9.76145e-13 -4.04459e-13 0 2.48474e-20 6.69167e-27
7990 267 0.0015 -0.215808 -1.87844 0 -2.96965e-12 6.06546e-12 0 1.00459e-20 9.20521e-27
7989 267 0.0015 -0.213482 -1.87932 0 -2.8117e-12 -6.08094e-12 0 2.00918e-20 1.67905e-26
10329 345 0.0015 -0.0659339 -1.87841 0 2.4625e-12 -1.28326e-11 0 1.57149e-20 7.62957e-26
1955 66 0.0015 0.0137179 -1.87827 0 -7.05734e-13 7.81422e-12 0 0 4.139e-26
10201 341 0.0015 0.290108 -1.87875 0 2.43872e-13 -2.24325e-12 0 0 9.58079e-27
3533 118 0.0015 0.655738 -1.87902 0 -1.06848e-11 -4.11705e-12 0 1.57149e-20 5.42381e-26
2647 89 0.0015 -0.593237 -1.87778 0 -3.49925e-12 2.31966e-12 0 5.32605e-21 1.22378e-26
10294 344 0.0015 -0.470773 -1.87669 0 4.6647e-12 -9.53301e-13 0 0 1.9779e-26
10293 344 0.0015 -0.467948 -1.87759 0 -8.57331e-12 3.81262e-13 0 0 2.91831e-26
6077 203 0.0015 -0.416475 -1.87683 0 9.73268e-13 7.04706e-13 0 0 1.61351e-26
6076 203 0.0015 -0.414658 -1.87769 0 -8.79083e-12 -2.20793e-12 0 2.48474e-20 1.40439e-26
6034 202 0.0015 -0.327828 -1.87791 0 1.3856e-12 -2.32288e-12 0 2.74394e-21 1.18058e-26
7992 267 0.0015 -0.22046 -1.87668 0 -1.00023e-12 -6.24154e-12 0 0 1.38169e-27
7991 267 0.0015 -0.218134 -1.87756 0 8.32155e-13 1.41807e-12 0 0 3.32912e-27
10267 343 0.0015 0.42201 -1.87716 0 1.39798e-12 6.66497e-12 0 0 4.50702e-26
1479 50 0.0015 0.574675 -1.87722 0 -5.78604e-13 -7.4707e-13 0 6.81478e-21 6.61533e-28
3532 118 0.0015 0.658275 -1.8771 0 5.32941e-12 1.21178e-13 0 1.57149e-20 2.11153e-26
2648 89 0.0015 -0.596958 -1.87493 0 2.35162e-12 -2.50044e-12 0 0 7.54146e-27
10296 344 0.0015 -0.476421 -1.87487 0 -4.60338e-12 -1.37648e-12 0 0 6.70419e-27
10295 344 0.0015 -0.473597 -1.87578 0 2.82901e-12 5.50819e-13 0 0 4.61514e-27
6080 203 0.0015 -0.421925 -1.87425 0 -1.09207e-11 2.43531e-12 0 4.96948e-20 4.94888e-26
6079 203 0.0015 -0.420108 -1.87511 0 7.182e-12 -6.80329e-12 0 2.48474e-20 4.79938e-26
6078 203 0.0015 -0.418291 -1.87597 0 4.98184e-12 2.65049e-12 0 0 6.85598e-27
7995 267 0.0015 -0.227437 -1.87404 0 1.71219e-12 6.13301e-12 0 1.00459e-20 8.01765e-28
7994 267 0.0015 -0.225111 -1.87492 0 -3.73824e-12 -4.52811e-12 0 0 1.61991e-27
7993 267 0.0015 -0.222785 -1.8758 0 3.96219e-12 5.93248e-12 0 0 1.50907e-27
10330 345 0.0015 -0.0666107 -1.87531 0 -1.44537e-12 6.82558e-12 0 3.14298e-20 3.09035e-26
6003 201 0.0015 0.496967 -1.87498 0 6.02258e-13 1.86962e-12 0 5.99535e-21 1.39453e-26
1480 50 0.0015 0.576901 -1.87431 0 1.16683e-12 4.0592e-13 0 6.81478e-21 6.96095e-28
3531 118 0.0015 0.660812 -1.87519 0 -8.72466e-13 1.60332e-12 0 0 3.13753e-28
2649 89 0.0015 -0.600679 -1.87207 0 -1.40512e-12 2.29036e-12 0 0 5.02989e-27
10299 344 0.0015 -0.484893 -1.87215 0 -3.22785e-12 -2.8451e-12 0 0 8.71888e-27
10298 344 0.0015 -0.482069 -1.87306 0 3.23972e-12 -1.52906e-12 0 0 8.17801e-27
10297 344 0.0015 -0.479245 -1.87396 0 1.94251e-12 2.22338e-12 0 0 2.26459e-27
6082 203 0.0015 -0.425558 -1.87252 0 -3.26506e-12 -2.54176e-11 0 4.96948e-20 2.25523e-26
6081 203 0.0015 -0.423741 -1.87338 0 1.53957e-12 1.3581e-11 0 7.45423e-20 2.20981e-26
7997 267 0.0015 -0.232089 -1.87228 0 5.49073e-13 7.1501e-12 0 2.00918e-20 1.16315e-26
7996 267 0.0015 -0.229763 -1.87316 0 -3.43326e-12 -7.03612e-12 0 2.00918e-20 2.70541e-27
10331 345 0.0015 -0.0672875 -1.8722 0 1.26752e-12 -4.54311e-12 0 4.71447e-20 1.22261e-26
1956 66 0.0015 0.0132378 -1.87349 0 4.02852e-13 -5.0595e-12 0 0 2.00303e-26
8045 269 0.0015 0.152704 -1.87369 0 6.64195e-13 -7.10721e-12 0 1.10616e-20 5.10512e-26
10202 341 0.0015 0.289307 -1.87202 0 -3.42503e-13 3.35012e-12 0 0 1.19027e-26
4531 152 0.0015 0.366216 -1.8733 0 -3.47799e-14 2.17547e-13 0 0 1.17616e-28
10268 343 0.0015 0.422731 -1.8732 0 -2.69673e-12 -1.40341e-11 0 0 1.15523e-25
3530 118 0.0015 0.66335 -1.87327 0 3.86766e-12 2.42294e-12 0 0 1.62552e-26
10301 344 0.0015 -0.490541 -1.87033 0 6.65485e-12 -2.79354e-12 0 0 2.19438e-26
10300 344 0.0015 -0.487717 -1.87124 0 -3.48064e-12 5.96284e-12 0 0 1.53676e-26
6084 203 0.0015 -0.429191 -1.8708 0 -2.3321e-12 -1.37864e-11 0 0 1.09633e-26
6083 203 0.0015 -0.427374 -1.87166 0 9.10307e-12 2.21833e-11 0 2.48474e-20 2.15311e-27
6035 202 0.0015 -0.332631 -1.87017 0 -1.25433e-12 2.08221e-12 0 0 1.11081e-26
7999 267 0.0015 -0.23674 -1.87052 0 -9.07009e-12 1.95956e-11 0 1.00459e-20 9.03477e-26
7998 267 0.0015 -0.234415 -1.8714 0 9.77884e-12 -1.33931e-11 0 1.00459e-20 8.08406e-26
1481 50 0.0015 0.579128 -1.8714 0 9.05172e-13 1.46928e-12 0 1.36296e-20 3.95783e-27
3529 118 0.0015 0.665887 -1.87136 0 -4.11157e-12 -4.12709e-12 0 1.57149e-20 1.81433e-26
2650 89 0.0015 -0.6044 -1.86922 0 -2.02708e-12 1.06647e-12 0 0 1.16323e-26
10303 344 0.0015 -0.49619 -1.86852 0 -7.49114e-13 9.25495e-13 0 3.36849e-20 4.49243e-28
10302 344 0.0015 -0.493366 -1.86943 0 -3.11519e-12 -1.10233e-12 0 1.68424e-20 7.36673e-27
6087 203 0.0015 -0.434641 -1.86821 0 6.97832e-12 1.8638e-12 0 0 2.15659e-26
6085 203 0.0015 -0.431008 -1.86994 0 4.41386e-13 8.69335e-12 0 0 1.14015e-26
6086 203 0.0015 -0.432824 -1.86908 0 -1.04336e-11 -5.09846e-12 0 0 2.19458e-26
8001 267 0.0015 -0.241392 -1.86876 0 -5.19338e-12 9.662e-12 0 2.00918e-20 2.4262e-26
8000 267 0.0015 -0.239066 -1.86964 0 2.92252e-12 -1.69597e-11 0 2.00918e-20 2.74423e-26
8012 268 0.0015 -0.171924 -1.86923 0 3.86903e-13 1.11153e-12 0 1.90242e-21 2.62277e-27
10332 345 0.0015 -0.0679644 -1.86909 0 -3.03078e-12 1.31368e-11 0 3.14298e-20 9.84637e-26
1957 66 0.0015 0.0127576 -1.86871 0 -2.03567e-13 2.75128e-12 0 0 5.11469e-27
10269 343 0.0015 0.423451 -1.86924 0 3.08238e-12 1.51552e-11 0 0 1.33645e-25
1482 50 0.0015 0.581354 -1.86848 0 -2.56046e-12 -3.51938e-12 0 6.81478e-21 9.73541e-27
3528 118 0.0015 0.668424 -1.86944 0 4.6018e-12 5.70419e-12 0 3.92872e-20 2.98789e-26
2651 89 0.0015 -0.608121 -1.86636 0 5.18496e-12 -4.18917e-12 0 5.32605e-21 2.93791e-26
10305 344 0.0015 -0.501838 -1.8667 0 -2.10935e-12 -7.23194e-13 0 1.68424e-20 4.42398e-27
10304 344 0.0015 -0.499014 -1.86761 0 4.7479e-13 9.06844e-13 0 3.36849e-20 5.42701e-28
6089 203 0.0015 -0.438274 -1.86649 0 -3.61941e-12 -7.73077e-12 0 2.48474e-20 1.40607e-27
6088 203 0.0015 -0.436457 -1.86735 0 3.97423e-12 4.24381e-12 0 2.48474e-20 9.27631e-28
8004 267 0.0015 -0.248369 -1.86612 0 -1.98295e-12 -3.21481e-12 0 0 2.16943e-28
8003 267 0.0015 -0.246044 -1.867 0 1.95412e-12 6.07434e-12 0 0 6.88711e-28
8002 267 0.0015 -0.243718 -1.86788 0 3.79797e-12 -5.93162e-12 0 1.00459e-20 1.6428e-26
8046 269 0.0015 0.152008 -1.86695 0 -8.89881e-13 9.18579e-12 0 7.37441e-21 8.02073e-26
6004 201 0.0015 0.499982 -1.86721 0 8.35495e-13 1.77345e-12 0 5.99535e-21 5.70761e-27
3527 118 0.0015 0.670962 -1.86752 0 -2.24534e-12 -5.14719e-12 0 3.92872e-20 2.84001e-26
10307 344 0.0015 -0.507486 -1.86489 0 -4.10845e-12 -1.61083e-12 0 0 5.56439e-27
10306 344 0.0015 -0.504662 -1.8658 0 5.02324e-12 4.3144e-13 0 0 8.9157e-27
6090 203 0.0015 -0.440091 -1.86563 0 3.3855e-13 3.38152e-12 0 2.48474e-20 7.30398e-28
8006 267 0.0015 -0.253021 -1.86436 0 2.04568e-12 5.62187e-13 0 0 4.35626e-27
8005 267 0.0015 -0.250695 -1.86524 0 4.15825e-13 -1.41158e-12 0 0 3.61442e-28
10333 345 0.0015 -0.0686412 -1.86599 0 4.75403e-12 -2.16951e-11 0 1.57149e-20 2.20152e-25
10203 341 0.0015 0.288506 -1.8653 0 2.3535e-13 -2.44245e-12 0 0 5.71298e-27
4532 152 0.0015 0.364868 -1.86469 0 -2.95189e-14 2.18377e-13 0 5.72705e-21 5.88081e-28
10270 343 0.0015 0.424172 -1.86529 0 -2.9457e-12 -1.38111e-11 0 0 1.11733e-25
1483 50 0.0015 0.58358 -1.86557 0 -1.85029e-12 -1.30405e-12 0 6.81478e-21 2.69516e-26
3526 118 0.0015 0.673499 -1.86561 0 -1.30573e-11 -5.27263e-12 0 2.35723e-20 1.46689e-25
2652 89 0.0015 -0.611842 -1.86351 0 -3.69855e-12 2.43999e-12 0 5.32605e-21 1.88961e-26
10310 344 0.0015 -0.515959 -1.86217 0 -3.418e-12 3.13025e-12 0 1.68424e-20 7.95763e-27
10309 344 0.0015 -0.513134 -1.86307 0 -2.06147e-12 -1.32993e-12 0 1.68424e-20 9.38334e-27
10308 344 0.0015 -0.51031 -1.86398 0 4.61289e-12 1.05534e-12 0 1.68424e-20 8.46648e-27
6036 202 0.0015 -0.337434 -1.86244 0 -1.45797e-12 2.3262e-12 0 0 2.48389e-26
8008 267 0.0015 -0.257673 -1.8626 0 5.81044e-12 5.27797e-13 0 1.00459e-20 1.04034e-26
8007 267 0.0015 -0.255347 -1.86348 0 -5.4845e-12 2.00679e-12 0 1.00459e-20 1.21337e-26
10334 345 0.0015 -0.0693181 -1.86288 0 -3.68172e-12 1.62649e-11 0 0 1.49923e-25
1958 66 0.0015 0.0122775 -1.86393 0 -8.17574e-14 2.26701e-13 0 0 5.05631e-27
1484 50 0.0015 0.585807 -1.86266 0 4.12691e-12 4.68468e-12 0 6.81478e-21 2.39698e-26
3525 118 0.0015 0.676036 -1.86369 0 1.30573e-11 5.27263e-12 0 2.35723e-20 1.46689e-25
2653 89 0.0015 -0.615563 -1.86065 0 -8.97789e-13 2.05069e-12 0 5.32605e-21 9.60723e-27
10312 344 0.0015 -0.521607 -1.86035 0 -7.40572e-12 5.94964e-12 0 0 3.69008e-26
10311 344 0.0015 -0.518783 -1.86126 0 4.67887e-12 -3.48289e-12 0 0 1.25545e-26
8010 267 0.0015 -0.262324 -1.86085 0 1.48911e-12 1.58379e-12 0 0 4.78769e-28
8009 267 0.0015 -0.259998 -1.86172 0 -4.05767e-12 -3.22843e-12 0 1.00459e-20 2.76837e-27
8047 269 0.0015 0.151313 -1.86021 0 5.36338e-13 -5.53529e-12 0 3.6872e-21 4.37055e-26
10271 343 0.0015 0.424893 -1.86133 0 2.13962e-12 9.4604e-12 0 0 5.93996e-26
3524 118 0.0015 0.678573 -1.86178 0 2.24534e-12 5.14719e-12 0 3.92872e-20 2.84001e-26
10314 344 0.0015 -0.527255 -1.85854 0 -1.07819e-11 9.47043e-12 0 1.68424e-20 7.39445e-26
10313 344 0.0015 -0.524431 -1.85944 0 8.99406e-12 -9.32819e-12 0 0 5.39296e-26
10335 345 0.0015 -0.0699949 -1.85978 0 -5.3471e-13 2.22041e-12 0 0 5.68991e-26
1959 66 0.0015 0.0117974 -1.85915 0 5.85583e-13 -5.0307e-12 0 5.20104e-21 2.00122e-26
4771 160 0.0015 0.0785585 -1.85825 0 7.13856e-15 -2.64095e-13 0 0 1.78393e-28
10204 341 0.0015 0.287705 -1.85857 0 -3.02204e-13 2.92533e-12 0 0 8.19772e-27
6005 201 0.0015 0.502997 -1.85945 0 -2.78713e-13 -4.6619e-13 0 0 7.40623e-27
1485 50 0.0015 0.588033 -1.85975 0 2.66791e-12 2.58372e-12 0 1.36296e-20 3.19683e-26
3523 118 0.0015 0.681111 -1.85986 0 -4.6018e-12 -5.70419e-12 0 3.92872e-20 2.98789e-26
2654 89 0.0015 -0.619284 -1.8578 0 1.61217e-12 -2.97198e-12 0 0 9.29303e-27
10316 344 0.0015 -0.532903 -1.85672 0 -9.40528e-12 2.07548e-12 0 1.68424e-20 5.41226e-26
10315 344 0.0015 -0.530079 -1.85763 0 1.44795e-11 -6.46764e-12 0 1.68424e-20 1.02383e-25
8013 268 0.0015 -0.167482 -1.85688 0 2.21554e-13 6.03535e-13 0 1.90242e-21 8.41949e-27
10336 345 0.0015 -0.0706718 -1.85667 0 2.32034e-12 -7.62548e-12 0 1.57149e-20 4.10251e-26
4533 152 0.0015 0.36352 -1.85607 0 -1.08546e-13 6.43116e-13 0 5.72705e-21 3.36424e-27
10272 343 0.0015 0.425614 -1.85738 0 -1.19775e-12 -4.59213e-12 0 0 1.36522e-26
1486 50 0.0015 0.59026 -1.85684 0 -2.66791e-12 -2.58372e-12 0 1.36296e-20 3.19683e-26
3522 118 0.0015 0.683648 -1.85795 0 4.11157e-12 4.12709e-12 0 1.57149e-20 1.81433e-26
3521 118 0.0015 0.686185 -1.85603 0 -3.86766e-12 -2.42294e-12 0 0 1.62552e-26
2655 89 0.0015 -0.623004 -1.85494 0 1.85599e-12 1.52036e-14 0 0 5.07487e-27
10318 344 0.0015 -0.538552 -1.85491 0 -3.314e-13 2.05839e-12 0 0 8.23937e-27
10317 344 0.0015 -0.535727 -1.85581 0 -1.27804e-13 -2.10349e-13 0 0 4.67607e-27
6037 202 0.0015 -0.342237 -1.85471 0 1.61763e-12 -2.60576e-12 0 0 2.45032e-26
1960 66 0.0015 0.0113172 -1.85437 0 -5.63911e-13 5.0332e-12 0 5.20104e-21 2.00135e-26
3520 118 0.0015 0.688722 -1.85412 0 8.72466e-13 -1.60332e-12 0 0 3.13753e-28
2656 89 0.0015 -0.626725 -1.85209 0 4.60856e-13 -9.00945e-13 0 0 1.52675e-26
10320 344 0.0015 -0.5442 -1.85309 0 -4.63436e-12 1.77685e-12 0 0 2.02365e-26
10319 344 0.0015 -0.541376 -1.854 0 6.84373e-12 -3.58993e-12 0 0 2.60582e-26
10337 345 0.0015 -0.0713486 -1.85356 0 -7.65362e-13 -1.35808e-12 0 1.57149e-20 6.48128e-27
8048 269 0.0015 0.150617 -1.85348 0 4.69834e-14 -2.24505e-13 0 3.6872e-21 3.26714e-27
10273 343 0.0015 0.426335 -1.85342 0 5.98519e-13 1.24687e-12 0 0 3.15621e-27
1487 50 0.0015 0.592486 -1.85392 0 -4.12691e-12 -4.68468e-12 0 6.81478e-21 2.39698e-26
3519 118 0.0015 0.69126 -1.8522 0 -5.32941e-12 -1.21178e-13 0 1.57149e-20 2.11153e-26
10338 345 0.0015 -0.0720254 -1.85046 0 7.82277e-13 1.22209e-12 0 1.57149e-20 6.79748e-27
10205 341 0.0015 0.286904 -1.85184 0 1.86344e-13 -1.89883e-12 0 0 4.98675e-27
6006 201 0.0015 0.506013 -1.85168 0 -1.0864e-12 -2.89901e-12 0 0 1.26454e-26
1488 50 0.0015 0.594712 -1.85101 0 1.85029e-12 1.30405e-12 0 6.81478e-21 2.69516e-26
3518 118 0.0015 0.693797 -1.85028 0 1.06848e-11 4.11705e-12 0 1.57149e-20 5.42381e-26
2657 89 0.0015 -0.630446 -1.84923 0 1.27216e-13 -2.175e-13 0 0 2.27233e-26
1961 66 0.0015 0.0108371 -1.84959 0 1.2323e-13 -9.5334e-13 0 5.20104e-21 3.32894e-27
4772 160 0.0015 0.0782973 -1.84905 0 -5.62359e-14 2.10566e-12 0 0 8.85242e-27
10274 343 0.0015 0.427056 -1.84946 0 -3.60061e-13 2.07273e-12 0 1.24237e-20 3.18203e-27
1489 50 0.0015 0.596939 -1.8481 0 2.56046e-12 3.51938e-12 0 6.81478e-21 9.73541e-27
3517 118 0.0015 0.696334 -1.84837 0 -1.08549e-11 -6.7153e-12 0 1.57149e-20 7.13988e-26
2658 89 0.0015 -0.634167 -1.84638 0 -6.90691e-12 5.30773e-12 0 0 5.37492e-26
6038 202 0.0015 -0.34704 -1.84697 0 1.76595e-12 -2.85725e-12 0 0 2.77693e-26
10339 345 0.0015 -0.0727023 -1.84735 0 -1.46817e-12 2.16914e-12 0 0 2.65887e-27
8049 269 0.0015 0.149922 -1.84674 0 -3.03679e-14 2.64244e-15 0 7.37441e-21 4.03869e-27
6541 219 0.0015 0.213251 -1.84656 0 -3.34547e-14 5.12002e-13 0 0 5.19747e-28
4534 152 0.0015 0.362172 -1.84745 0 1.24115e-13 -7.45924e-13 0 5.72705e-21 3.16839e-27
3516 118 0.0015 0.698871 -1.84645 0 6.4263e-12 6.18765e-12 0 0 4.26763e-26
8014 268 0.0015 -0.163039 -1.84452 0 -6.71486e-13 -1.89344e-12 0 1.90242e-21 8.21391e-27
10340 345 0.0015 -0.0733791 -1.84424 0 4.16443e-13 2.14742e-12 0 0 9.25759e-27
1962 66 0.0015 0.010357 -1.84481 0 7.38807e-13 -7.78653e-12 0 0 7.1341e-26
10206 341 0.0015 0.286103 -1.84511 0 2.93758e-13 -2.36112e-12 0 0 1.37841e-26
10275 343 0.0015 0.427777 -1.84551 0 1.07864e-12 -1.00673e-12 0 2.48474e-20 3.89749e-27
1490 50 0.0015 0.599165 -1.84519 0 -9.05172e-13 -1.46928e-12 0 1.36296e-20 3.95783e-27
3515 118 0.0015 0.701409 -1.84454 0 3.20563e-12 -2.53784e-13 0 0 2.41658e-26
2659 89 0.0015 -0.637888 -1.84352 0 8.32206e-12 -5.99056e-12 0 0 6.91285e-26
6007 201 0.0015 0.509028 -1.84391 0 1.88527e-12 4.85891e-12 0 0 3.24989e-26
1491 50 0.0015 0.601391 -1.84228 0 -1.16683e-12 -4.0592e-13 0 6.81478e-21 6.96095e-28
3514 118 0.0015 0.703946 -1.84262 0 -6.71358e-12 -1.13532e-12 0 0 2.11026e-26
2660 89 0.0015 -0.641609 -1.84066 0 -5.53901e-12 3.47297e-12 0 0 3.23548e-26
10341 345 0.0015 -0.074056 -1.84114 0 1.93628e-12 -1.00403e-11 0 0 5.35579e-26
1963 66 0.0015 0.00987681 -1.84004 0 -1.99172e-12 2.02132e-11 0 5.20104e-21 2.97047e-25
10276 343 0.0015 0.428498 -1.84155 0 -1.07864e-12 1.00673e-12 0 2.48474e-20 3.89749e-27
3513 118 0.0015 0.706483 -1.84071 0 -2.85586e-13 -5.30111e-12 0 0 2.1627e-26
6039 202 0.0015 -0.351842 -1.83924 0 -2.6087e-12 4.26986e-12 0 0 3.49875e-26
10342 345 0.0015 -0.0747328 -1.83803 0 -1.75714e-12 4.53984e-12 0 0 5.01578e-26
4773 160 0.0015 0.0780361 -1.83985 0 4.95917e-14 -2.01079e-12 0 0 8.74717e-27
8050 269 0.0015 0.149226 -1.84 0 -2.41062e-13 2.67901e-12 0 1.10616e-20 7.17256e-27
6542 219 0.0015 0.21269 -1.83947 0 1.29021e-13 -1.84701e-12 0 3.51396e-21 4.05688e-27
10207 341 0.0015 0.285302 -1.83839 0 -5.87728e-13 5.13821e-12 0 0 2.52062e-26
4535 152 0.0015 0.360823 -1.83883 0 1.37108e-13 -9.4841e-13 0 0 1.2108e-27
1492 50 0.0015 0.603618 -1.83936 0 5.78604e-13 7.4707e-13 0 6.81478e-21 6.61533e-28
3512 118 0.0015 0.70902 -1.83879 0 6.84091e-12 8.9247e-12 0 0 5.26151e-26
2661 89 0.0015 -0.64533 -1.83781 0 9.32497e-13 4.79763e-13 0 0 7.47486e-27
10277 343 0.0015 0.429219 -1.8376 0 3.60061e-13 -2.07273e-12 0 1.24237e-20 3.18203e-27
6008 201 0.0015 0.512043 -1.83614 0 -2.19296e-12 -5.70514e-12 0 5.99535e-21 4.32405e-26
1493 50 0.0015 0.605844 -1.83645 0 1.23268e-12 -6.50246e-13 0 0 1.75576e-28
3511 118 0.0015 0.711558 -1.83688 0 -4.31517e-12 -4.36451e-12 0 0 3.25771e-26
2662 89 0.0015 -0.649051 -1.83495 0 4.95814e-13 -1.75787e-12 0 5.32605e-21 2.75824e-27
10343 345 0.0015 -0.0754097 -1.83493 0 -8.94135e-13 1.01541e-11 0 0 5.80721e-26
1964 66 0.0015 0.00939668 -1.83526 0 1.94549e-12 -1.9124e-11 0 5.20104e-21 2.77448e-25
2663 89 0.0015 -0.652772 -1.8321 0 2.18407e-13 8.3715e-13 0 5.32605e-21 1.40158e-28
10171 340 0.0015 -0.234195 -1.83312 0 -5.91068e-13 7.74697e-13 0 0 2.05914e-27
8015 268 0.0015 -0.158597 -1.83216 0 5.62284e-13 1.60697e-12 0 0 5.54564e-27
8051 269 0.0015 0.14853 -1.83326 0 1.22174e-13 -1.7546e-12 0 7.37441e-21 5.18375e-27
6543 219 0.0015 0.212128 -1.83239 0 -2.42881e-13 3.24554e-12 0 3.51396e-21 1.07878e-26
10278 343 0.0015 0.429939 -1.83364 0 -5.98519e-13 -1.24687e-12 0 0 3.15621e-27
1494 50 0.0015 0.60807 -1.83354 0 -3.95877e-12 -2.35317e-12 0 0 1.55437e-26
6040 202 0.0015 -0.356645 -1.83151 0 -2.07521e-13 2.42978e-13 0 0 1.73993e-26
10344 345 0.0015 -0.0760865 -1.83182 0 1.11436e-13 -5.41566e-12 0 2.35723e-20 5.84756e-26
1965 66 0.0015 0.00891654 -1.83048 0 -6.89402e-13 6.22268e-12 0 5.20104e-21 5.13737e-26
4774 160 0.0015 0.0777749 -1.83066 0 4.11614e-14 -1.32966e-12 0 0 5.81974e-27
10208 341 0.0015 0.284501 -1.83166 0 1.23805e-13 -1.41671e-12 0 3.6872e-21 1.3723e-26
4536 152 0.0015 0.359475 -1.83021 0 9.14635e-16 1.25674e-13 0 0 1.53603e-27
1495 50 0.0015 0.610297 -1.83063 0 6.76993e-12 6.26984e-12 0 6.81478e-21 4.29742e-26
2664 89 0.0015 -0.656493 -1.82924 0 -1.07728e-12 6.46889e-13 0 5.32605e-21 3.37739e-27
10345 345 0.0015 -0.0767633 -1.82871 0 1.88994e-12 -6.96732e-12 0 2.35723e-20 2.5326e-26
10279 343 0.0015 0.43066 -1.82968 0 1.19775e-12 4.59213e-12 0 0 1.36522e-26
6009 201 0.0015 0.515058 -1.82837 0 1.09199e-12 3.11648e-12 0 5.99535e-21 2.13885e-26
2665 89 0.0015 -0.660213 -1.82639 0 4.71085e-12 -4.09563e-12 0 5.32605e-21 3.14597e-26
10172 340 0.0015 -0.238704 -1.82673 0 1.30224e-12 -1.66409e-12 0 0 4.86515e-27
8052 269 0.0015 0.147835 -1.82652 0 1.39583e-13 -4.84858e-13 0 3.6872e-21 6.92056e-28
1496 50 0.0015 0.612523 -1.82772 0 -6.04272e-12 -4.80494e-12 0 6.81478e-21 3.28873e-26
10346 345 0.0015 -0.0774402 -1.82561 0 3.13303e-13 4.67256e-13 0 2.35723e-20 3.69404e-26
1966 66 0.0015 0.0084364 -1.8257 0 4.49499e-13 -4.18416e-12 0 0 2.3013e-26
6544 219 0.0015 0.211567 -1.8253 0 4.38976e-13 -5.70254e-12 0 3.51396e-21 3.58129e-26
10209 341 0.0015 0.2837 -1.82493 0 4.97193e-13 -3.7918e-12 0 3.6872e-21 1.64812e-26
10280 343 0.0015 0.431381 -1.82573 0 -2.13962e-12 -9.4604e-12 0 0 5.93996e-26
1497 50 0.0015 0.614749 -1.8248 0 9.22833e-13 -1.66079e-12 0 6.81478e-21 1.47246e-26
2666 89 0.0015 -0.663934 -1.82353 0 -6.10346e-12 5.01974e-12 0 1.06521e-20 4.19304e-26
6041 202 0.0015 -0.361448 -1.82377 0 1.69804e-12 -2.68523e-12 0 0 1.36434e-26
10347 345 0.0015 -0.078117 -1.8225 0 -2.27419e-12 5.93767e-12 0 0 2.01239e-26
2667 89 0.0015 -0.667655 -1.82068 0 2.61342e-12 -1.72461e-12 0 1.06521e-20 1.37269e-26
10173 340 0.0015 -0.243212 -1.82034 0 -1.66085e-12 2.19001e-12 0 0 8.43659e-27
1967 66 0.0015 0.00795626 -1.82092 0 -9.40608e-13 9.70573e-12 0 0 6.48215e-26
4775 160 0.0015 0.0775136 -1.82146 0 -1.33645e-13 4.92282e-12 0 0 3.57314e-26
4537 152 0.0015 0.358127 -1.82159 0 -1.04667e-13 4.98448e-13 0 0 6.00146e-28
10281 343 0.0015 0.432102 -1.82177 0 2.9457e-12 1.38111e-11 0 0 1.11733e-25
6010 201 0.0015 0.518074 -1.8206 0 -3.93245e-13 -1.5474e-12 0 5.99535e-21 4.15611e-27
1498 50 0.0015 0.616976 -1.82189 0 4.4108e-12 6.76462e-12 0 0 3.4991e-26
8016 268 0.0015 -0.154154 -1.81981 0 -7.58985e-13 -2.16523e-12 0 0 9.68351e-27
10348 345 0.0015 -0.0787939 -1.81939 0 2.11701e-12 -3.77742e-12 0 0 7.61823e-27
8053 269 0.0015 0.147139 -1.81978 0 -3.61641e-13 2.66852e-12 0 0 8.92167e-27
6545 219 0.0015 0.211005 -1.81821 0 -2.60527e-13 3.5301e-12 0 0 2.86994e-26
10210 341 0.0015 0.282899 -1.8182 0 -5.16605e-13 4.02285e-12 0 3.6872e-21 1.75081e-26
1499 50 0.0015 0.619202 -1.81898 0 -2.40728e-12 -2.61636e-12 0 0 2.77744e-26
2668 89 0.0015 -0.671376 -1.81782 0 1.06074e-12 -1.19609e-12 0 5.32605e-21 2.75502e-27
6042 202 0.0015 -0.366251 -1.81604 0 1.128e-12 -1.80617e-12 0 2.74394e-21 3.10136e-26
10349 345 0.0015 -0.0794707 -1.81629 0 -1.57016e-12 2.17635e-12 0 0 4.43872e-27
1968 66 0.0015 0.00747613 -1.81614 0 8.6753e-13 -9.26304e-12 0 5.20104e-21 6.01272e-26
10282 343 0.0015 0.432823 -1.81781 0 -3.08238e-12 -1.51552e-11 0 0 1.33645e-25
1500 50 0.0015 0.621428 -1.81607 0 -6.99921e-13 -1.31633e-12 0 0 2.20271e-27
2669 89 0.0015 -0.675097 -1.81497 0 -2.83697e-12 2.19114e-12 0 0 8.67695e-27
5941 199 0.0015 0.740778 -1.81551 0 -1.36863e-13 -5.55495e-13 0 0 8.73364e-28
2670 89 0.0015 -0.678818 -1.81211 0 1.73226e-12 -1.25028e-12 0 0 5.94085e-27
10174 340 0.0015 -0.24772 -1.81396 0 2.19331e-12 -3.07575e-12 0 0 1.5832e-26
10350 345 0.0015 -0.0801475 -1.81318 0 4.18381e-13 -1.44925e-13 0 0 4.69965e-29
4776 160 0.0015 0.0772524 -1.81226 0 1.74699e-13 -6.46331e-12 0 0 5.36129e-26
8054 269 0.0015 0.146443 -1.81304 0 4.98441e-13 -4.24136e-12 0 0 1.71636e-26
4538 152 0.0015 0.356779 -1.81297 0 -2.59106e-13 1.82473e-12 0 0 8.32918e-27
10283 343 0.0015 0.433544 -1.81386 0 2.69673e-12 1.40341e-11 0 0 1.15523e-25
6011 201 0.0015 0.521089 -1.81283 0 8.02246e-13 2.54323e-12 0 0 8.19808e-27
1969 66 0.0015 0.00699599 -1.81136 0 -3.69929e-13 4.09119e-12 0 5.20104e-21 1.85308e-26
6546 219 0.0015 0.210443 -1.81113 0 -2.4509e-13 3.04917e-12 0 0 1.55684e-26
10211 341 0.0015 0.282098 -1.81148 0 8.23553e-15 7.9419e-14 0 0 6.68581e-27
6043 202 0.0015 -0.371054 -1.8083 0 -3.44965e-12 5.53543e-12 0 2.74394e-21 5.37967e-26
10284 343 0.0015 0.434265 -1.8099 0 -1.39798e-12 -6.66497e-12 0 0 4.50702e-26
10175 340 0.0015 -0.252228 -1.80757 0 4.65959e-14 -1.1206e-13 0 0 2.1548e-26
8017 268 0.0015 -0.149712 -1.80745 0 9.5031e-14 3.15076e-13 0 0 8.86343e-27
1970 66 0.0015 0.00651585 -1.80658 0 -1.71808e-13 1.66182e-12 0 5.20104e-21 5.95092e-27
8055 269 0.0015 0.145748 -1.8063 0 -4.02946e-13 3.47917e-12 0 0 1.22219e-26
5942 199 0.0015 0.743061 -1.80618 0 1.20493e-13 4.63458e-13 0 0 8.96588e-28
6547 219 0.0015 0.209882 -1.80404 0 1.4506e-13 -2.17288e-12 0 0 1.61852e-26