ITEM: TIMESTEP
85140
ITEM: NUMBER OF ATOMS
10500
ITEM: BOX BOUNDS pp pp pp
-1.0249999999999999e+00 1.0249999999999999e+00
-2.0000000000000000e+00 2.0000000000000000e+00
-5.0000000000000003e-02 5.0000000000000003e-02
ITEM: ATOMS id type radius x y z fx fy fz c_bendingE c_stretchingE
10321 345 0.0015 -0.0605191 -1.90326 0 -4.04162e-13 1.33345e-12 0 0 1.7036e-27
6031 202 0.0015 -0.31342 -1.90111 0 2.09905e-13 -3.26289e-13 0 0 3.80548e-28
10322 345 0.0015 -0.061196 -1.90016 0 1.30189e-12 -3.40803e-12 0 0 6.04854e-27
8041 269 0.0015 0.155487 -1.90065 0 -2.2245e-13 2.12675e-12 0 0 8.60498e-27
10261 343 0.0015 0.417684 -1.90089 0 1.57348e-13 2.01007e-13 0 0 5.70319e-29
1471 50 0.0015 0.556864 -1.90052 0 6.85505e-14 6.20417e-14 0 6.81478e-21 8.41972e-30
10323 345 0.0015 -0.0618728 -1.89705 0 -2.41515e-12 5.5848e-12 0 0 1.6782e-26
1951 66 0.0015 0.0156385 -1.89738 0 8.39247e-13 -8.01853e-12 0 0 8.67189e-26
10262 343 0.0015 0.418405 -1.89694 0 5.1803e-13 4.25762e-12 0 0 2.27523e-26
1472 50 0.0015 0.559091 -1.8976 0 2.21942e-13 6.64038e-13 0 6.81478e-21 5.86132e-28
2641 89 0.0015 -0.570912 -1.89491 0 1.62256e-12 -1.0277e-12 0 0 4.76718e-27
1473 50 0.0015 0.561317 -1.89469 0 -6.73746e-13 -2.19658e-12 0 1.36296e-20 2.57617e-27
2642 89 0.0015 -0.574633 -1.89206 0 -1.79431e-12 9.02036e-13 0 0 4.77184e-27
6032 202 0.0015 -0.318223 -1.89337 0 1.11801e-12 -1.78755e-12 0 0 1.61388e-26
10324 345 0.0015 -0.0625496 -1.89394 0 2.693e-12 -7.03484e-12 0 0 2.44882e-26
1952 66 0.0015 0.0151583 -1.8926 0 -1.15502e-12 1.05789e-11 0 0 9.5593e-26
8042 269 0.0015 0.154791 -1.89391 0 5.89033e-13 -5.6815e-12 0 3.6872e-21 3.26377e-26
10263 343 0.0015 0.419126 -1.89298 0 -1.45844e-12 -8.50122e-12 0 0 4.16333e-26
3540 118 0.0015 0.637977 -1.89243 0 -8.05323e-12 -5.66072e-12 0 0 8.54719e-26
6061 203 0.0015 -0.387409 -1.89062 0 -7.01751e-12 -5.59679e-13 0 0 2.07841e-26
10325 345 0.0015 -0.0632265 -1.89084 0 -1.71181e-12 7.88546e-12 0 0 2.89542e-26
10231 342 0.0015 0.215 -1.89 0 1.04441e-12 0 0 0 2.08874e-28
10232 342 0.0015 0.21569 -1.89 0 -1.44884e-13 0 0 0 3.63805e-28
10233 342 0.0015 0.216379 -1.89 0 -3.94831e-12 0 0 0 1.93561e-27
10234 342 0.0015 0.217069 -1.89 0 7.64308e-12 0 0 0 5.82348e-27
10235 342 0.0015 0.217759 -1.89 0 -9.12837e-12 0 0 0 7.9807e-27
10236 342 0.0015 0.218448 -1.89 0 1.0287e-11 0 0 0 1.02781e-26
10237 342 0.0015 0.219138 -1.89 0 -1.31482e-11 0 0 0 1.68174e-26
10238 342 0.0015 0.219828 -1.89 0 1.45617e-11 0 0 0 2.03133e-26
10239 342 0.0015 0.220517 -1.89 0 -1.42358e-11 0 0 0 1.941e-26
10240 342 0.0015 0.221207 -1.89 0 1.60099e-11 0 0 0 2.48861e-26
10241 342 0.0015 0.221897 -1.89 0 -1.76034e-11 0 0 0 2.96894e-26
10242 342 0.0015 0.222586 -1.89 0 1.44162e-11 0 0 0 2.07173e-26
10243 342 0.0015 0.223276 -1.89 0 -1.11199e-11 0 0 0 1.18583e-26
10244 342 0.0015 0.223966 -1.89 0 1.20616e-11 0 0 0 1.41039e-26
10245 342 0.0015 0.224655 -1.89 0 -1.63724e-11 0 0 0 2.65263e-26
10246 342 0.0015 0.225345 -1.89 0 1.63724e-11 0 0 0 2.65263e-26
10247 342 0.0015 0.226034 -1.89 0 -1.20616e-11 0 0 0 1.41039e-26
10248 342 0.0015 0.226724 -1.89 0 1.11199e-11 0 0 0 1.18583e-26
10249 342 0.0015 0.227414 -1.89 0 -1.44162e-11 0 0 0 2.07173e-26
10250 342 0.0015 0.228103 -1.89 0 1.76034e-11 0 0 0 2.96894e-26
10251 342 0.0015 0.228793 -1.89 0 -1.60099e-11 0 0 0 2.48861e-26
10252 342 0.0015 0.229483 -1.89 0 1.42358e-11 0 0 0 1.941e-26
10253 342 0.0015 0.230172 -1.89 0 -1.45617e-11 0 0 0 2.03133e-26
10254 342 0.0015 0.230862 -1.89 0 1.31482e-11 0 0 0 1.68174e-26
10255 342 0.0015 0.231552 -1.89 0 -1.0287e-11 0 0 0 1.02781e-26
10256 342 0.0015 0.232241 -1.89 0 9.12837e-12 0 0 0 7.9807e-27
10257 342 0.0015 0.232931 -1.89 0 -7.64308e-12 0 0 0 5.82348e-27
10258 342 0.0015 0.233621 -1.89 0 3.94831e-12 0 0 0 1.93561e-27
10259 342 0.0015 0.23431 -1.89 0 1.44884e-13 0 0 0 3.63805e-28
10260 342 0.0015 0.235 -1.89 0 -1.04441e-12 0 0 0 2.08874e-28
6001 201 0.0015 0.490936 -1.89052 0 8.34128e-13 2.2103e-12 0 0 1.2918e-26
1474 50 0.0015 0.563543 -1.89178 0 8.77477e-14 1.93005e-12 0 6.81478e-21 2.03353e-27
3539 118 0.0015 0.640514 -1.89051 0 1.21715e-11 7.64059e-12 0 0 1.03194e-25
2643 89 0.0015 -0.578354 -1.8892 0 2.3234e-13 -1.98366e-13 0 0 8.30648e-29
6063 203 0.0015 -0.391043 -1.8889 0 -9.55203e-12 -8.42257e-12 0 2.48474e-20 2.2479e-26
6064 203 0.0015 -0.392859 -1.88804 0 2.31328e-12 1.35164e-11 0 2.48474e-20 4.29328e-27
6062 203 0.0015 -0.389226 -1.88976 0 1.51621e-11 3.19697e-12 0 2.48474e-20 4.24478e-26
10264 343 0.0015 0.419847 -1.88903 0 1.55159e-12 7.71689e-12 0 0 3.46677e-26
1475 50 0.0015 0.56577 -1.88887 0 -9.73863e-13 -2.13385e-12 0 6.81478e-21 4.53001e-27
3538 118 0.0015 0.643052 -1.8886 0 -3.90925e-12 -1.39606e-12 0 0 1.79595e-26
2644 89 0.0015 -0.582074 -1.88635 0 -5.90586e-13 1.57585e-12 0 0 1.90031e-27
6066 203 0.0015 -0.396492 -1.88631 0 1.21924e-11 8.92285e-12 0 0 1.48108e-26
6065 203 0.0015 -0.394676 -1.88717 0 -6.80264e-12 -1.31166e-11 0 0 8.56905e-27
7981 267 0.0015 -0.194876 -1.88635 0 6.02807e-12 -1.28626e-12 0 0 2.56453e-26
10326 345 0.0015 -0.0639033 -1.88773 0 9.74192e-13 -9.67187e-12 0 0 4.15461e-26
1953 66 0.0015 0.0146782 -1.88782 0 1.90402e-13 -8.14282e-13 0 0 1.29591e-26
8043 269 0.0015 0.154095 -1.88717 0 -4.84213e-13 4.66935e-12 0 3.6872e-21 2.63967e-26
3537 118 0.0015 0.645589 -1.88668 0 -5.31941e-12 -3.30806e-12 0 1.57149e-20 2.91308e-26
6068 203 0.0015 -0.400126 -1.88459 0 4.81037e-12 -9.10817e-12 0 2.48474e-20 1.90722e-26
6067 203 0.0015 -0.398309 -1.88545 0 -1.04269e-11 -2.06069e-12 0 0 2.03632e-26
6033 202 0.0015 -0.323025 -1.88564 0 -2.92051e-12 4.62433e-12 0 0 3.8108e-26
7983 267 0.0015 -0.199527 -1.8846 0 5.28541e-12 2.90452e-12 0 1.00459e-20 5.50974e-27
7982 267 0.0015 -0.197202 -1.88548 0 -8.79622e-12 6.12675e-13 0 1.00459e-20 2.94627e-26
10327 345 0.0015 -0.0645802 -1.88463 0 -1.69186e-12 1.28535e-11 0 1.57149e-20 7.61412e-26
10265 343 0.0015 0.420568 -1.88507 0 -1.33105e-12 -6.88259e-12 0 0 2.75804e-26
1476 50 0.0015 0.567996 -1.88596 0 2.31053e-12 2.72421e-12 0 0 6.6846e-27
3536 118 0.0015 0.648126 -1.88476 0 1.04617e-11 5.54117e-12 0 3.14298e-20 6.03489e-26
2645 89 0.0015 -0.585795 -1.88349 0 1.05537e-12 -2.5846e-12 0 0 3.78702e-27
6071 203 0.0015 -0.405575 -1.882 0 -6.76662e-12 -2.80935e-12 0 4.96948e-20 1.20513e-26
6070 203 0.0015 -0.403759 -1.88287 0 4.22865e-12 -8.44025e-12 0 7.45423e-20 1.63924e-26
6069 203 0.0015 -0.401942 -1.88373 0 -5.0608e-13 1.45312e-11 0 4.96948e-20 1.28112e-26
7985 267 0.0015 -0.204179 -1.88284 0 -1.34751e-12 1.17117e-11 0 0 1.40074e-26
7984 267 0.0015 -0.201853 -1.88372 0 -3.45297e-12 -7.57804e-12 0 1.00459e-20 2.40583e-27
1954 66 0.0015 0.0141981 -1.88304 0 2.87121e-13 -3.71808e-12 0 0 9.30658e-27
6002 201 0.0015 0.493952 -1.88275 0 -1.28328e-12 -3.449e-12 0 0 1.69347e-26
1477 50 0.0015 0.570222 -1.88304 0 -1.43739e-12 -1.47749e-12 0 0 2.53256e-27
3535 118 0.0015 0.650663 -1.88285 0 -3.92625e-12 -1.2048e-12 0 3.14298e-20 3.53826e-26
2646 89 0.0015 -0.589516 -1.88064 0 1.54348e-12 2.63048e-13 0 0 8.81236e-27
6073 203 0.0015 -0.409209 -1.88028 0 -1.2623e-11 -2.83815e-12 0 0 2.99825e-26
6072 203 0.0015 -0.407392 -1.88114 0 8.18721e-12 6.94122e-12 0 2.48474e-20 9.65826e-27
7988 267 0.0015 -0.211156 -1.8802 0 6.53627e-12 -1.08603e-12 0 0 1.68242e-26
7987 267 0.0015 -0.208831 -1.88108 0 -3.16374e-12 4.4176e-12 0 0 7.17492e-27
7986 267 0.0015 -0.206505 -1.88196 0 3.67174e-12 -9.8936e-12 0 0 1.77751e-26
8011 268 0.0015 -0.176367 -1.88159 0 5.54778e-13 1.53979e-12 0 0 9.77034e-27
10328 345 0.0015 -0.065257 -1.88152 0 1.46478e-12 -8.36035e-12 0 3.14298e-20 5.21274e-26
8044 269 0.0015 0.1534 -1.88043 0 2.52711e-13 -2.24677e-12 0 3.6872e-21 4.80985e-27
10266 343 0.0015 0.421289 -1.88111 0 9.33758e-13 5.81349e-12 0 1.24237e-20 1.95745e-26
1478 50 0.0015 0.572449 -1.88013 0 2.11234e-12 2.5459e-12 0 0 7.90469e-27
3534 118 0.0015 0.653201 -1.88093 0 -5.26964e-12 -4.75538e-12 0 1.57149e-20 2.5672e-26
10292 344 0.0015 -0.465124 -1.8785 0 3.84035e-12 3.66386e-12 0 0 5.95769e-27
10291 344 0.0015 -0.4623 -1.87941 0 -3.18183e-13 -1.47847e-12 0 0 1.83779e-29
6074 203 0.0015 -0.411025 -1.87942 0 7.77708e-12 2.42155e-12 0 2.48474e-20 2.0367e-26
6075 203 0.0015 -0.412842 -1.87856 0 -2.07206e-12 -8.17682e-12 0 2.48474e-20 1.40074e-27
7990 267 0.0015 -0.215808 -1.87844 0 1.03467e-11 -1.76829e-12 0 0 3.68673e-26
7989 267 0.0015 -0.213482 -1.87932 0 -1.05326e-11 5.90297e-13 0 0 3.53093e-26
10329 345 0.0015 -0.0659339 -1.87841 0 7.18007e-13 -3.68642e-12 0 3.14298e-20 1.93059e-26
1955 66 0.0015 0.0137179 -1.87827 0 -2.03948e-13 2.42437e-12 0 0 5.49693e-27
10201 341 0.0015 0.290108 -1.87875 0 -7.23765e-13 5.65451e-12 0 3.6872e-21 6.11514e-26
3533 118 0.0015 0.655738 -1.87902 0 5.30908e-12 4.28094e-12 0 0 2.47817e-26
2647 89 0.0015 -0.593237 -1.87778 0 -6.39891e-12 4.32331e-12 0 0 4.50619e-26
10294 344 0.0015 -0.470773 -1.87669 0 4.34128e-12 1.15459e-12 0 0 8.1422e-27
10293 344 0.0015 -0.467948 -1.87759 0 -7.06504e-12 -3.20892e-12 0 0 1.36543e-26
6077 203 0.0015 -0.416475 -1.87683 0 -8.10015e-12 -1.16338e-11 0 0 9.36736e-27
6076 203 0.0015 -0.414658 -1.87769 0 3.59274e-12 1.47298e-11 0 2.48474e-20 2.63104e-27
6034 202 0.0015 -0.327828 -1.87791 0 1.13595e-12 -1.75764e-12 0 2.74394e-21 2.43101e-26
7992 267 0.0015 -0.22046 -1.87668 0 4.14053e-12 -8.27526e-12 0 1.00459e-20 1.61437e-26
7991 267 0.0015 -0.218134 -1.87756 0 -7.39918e-12 4.52229e-12 0 0 2.54258e-26
10267 343 0.0015 0.42201 -1.87716 0 4.86276e-13 1.68054e-12 0 1.24237e-20 2.90562e-26
1479 50 0.0015 0.574675 -1.87722 0 -4.88934e-12 -5.43127e-12 0 0 2.87266e-26
3532 118 0.0015 0.658275 -1.8771 0 -2.90129e-12 -2.26781e-12 0 0 5.98629e-27
2648 89 0.0015 -0.596958 -1.87493 0 7.7849e-12 -6.04315e-12 0 0 6.38875e-26
10296 344 0.0015 -0.476421 -1.87487 0 -3.63797e-13 -8.69029e-13 0 0 3.83998e-27
10295 344 0.0015 -0.473597 -1.87578 0 -2.12366e-12 6.01054e-13 0 0 2.2459e-27
6080 203 0.0015 -0.421925 -1.87425 0 9.39041e-12 5.25241e-12 0 0 1.36279e-26
6079 203 0.0015 -0.420108 -1.87511 0 -6.57794e-12 -2.25701e-12 0 0 7.91918e-27
6078 203 0.0015 -0.418291 -1.87597 0 9.3182e-12 2.71881e-12 0 0 1.47323e-26
7995 267 0.0015 -0.227437 -1.87404 0 2.51597e-12 4.57968e-12 0 0 6.70479e-27
7994 267 0.0015 -0.225111 -1.87492 0 3.71868e-12 -9.46941e-12 0 1.00459e-20 1.96748e-26
7993 267 0.0015 -0.222785 -1.8758 0 -4.34598e-12 1.13155e-11 0 1.00459e-20 2.38289e-26
10330 345 0.0015 -0.0666107 -1.87531 0 -1.90965e-12 8.09682e-12 0 1.57149e-20 3.08902e-26
6003 201 0.0015 0.496967 -1.87498 0 6.66676e-13 1.77669e-12 0 0 4.79602e-27
1480 50 0.0015 0.576901 -1.87431 0 5.32421e-12 4.86075e-12 0 0 2.77135e-26
3531 118 0.0015 0.660812 -1.87519 0 -1.25653e-12 -5.0061e-13 0 0 1.16126e-26
2649 89 0.0015 -0.600679 -1.87207 0 -6.39265e-12 5.25885e-12 0 0 4.4823e-26
10299 344 0.0015 -0.484893 -1.87215 0 3.19518e-12 -3.3901e-12 0 1.68424e-20 1.37709e-26
10298 344 0.0015 -0.482069 -1.87306 0 -7.95964e-12 2.1257e-12 0 1.68424e-20 2.78949e-26
10297 344 0.0015 -0.479245 -1.87396 0 5.82503e-12 -5.25078e-13 0 0 1.61453e-26
6082 203 0.0015 -0.425558 -1.87252 0 1.69718e-11 -1.06616e-11 0 2.48474e-20 1.10653e-25
6081 203 0.0015 -0.423741 -1.87338 0 -1.65636e-11 -1.0821e-12 0 0 6.60241e-26
7997 267 0.0015 -0.232089 -1.87228 0 -7.41151e-12 1.15306e-11 0 1.00459e-20 4.77187e-26
7996 267 0.0015 -0.229763 -1.87316 0 -1.31971e-12 -6.06122e-12 0 1.00459e-20 1.26678e-26
10331 345 0.0015 -0.0672875 -1.8722 0 6.82425e-13 -2.19124e-12 0 0 1.4026e-26
1956 66 0.0015 0.0132378 -1.87349 0 -5.33588e-13 5.38515e-12 0 0 4.61797e-26
8045 269 0.0015 0.152704 -1.87369 0 -6.87584e-13 6.208e-12 0 0 5.15039e-26
10202 341 0.0015 0.289307 -1.87202 0 1.30954e-12 -9.93495e-12 0 3.6872e-21 9.62666e-26
4531 152 0.0015 0.366216 -1.8733 0 -1.26911e-13 6.75381e-13 0 0 1.1433e-27
10268 343 0.0015 0.422731 -1.8732 0 -2.66533e-12 -1.3552e-11 0 2.48474e-20 1.20882e-25
3530 118 0.0015 0.66335 -1.87327 0 5.33524e-12 3.05613e-12 0 1.57149e-20 1.64391e-26
10301 344 0.0015 -0.490541 -1.87033 0 3.39029e-12 -5.48972e-12 0 1.68424e-20 2.4648e-26
10300 344 0.0015 -0.487717 -1.87124 0 2.0081e-12 4.46821e-12 0 1.68424e-20 2.36733e-28
6084 203 0.0015 -0.429191 -1.8708 0 6.89451e-12 -2.47739e-11 0 7.45423e-20 8.4559e-26
6083 203 0.0015 -0.427374 -1.87166 0 -1.14644e-11 2.41194e-11 0 4.96948e-20 1.19689e-25
6035 202 0.0015 -0.332631 -1.87017 0 3.41282e-13 -5.90514e-13 0 5.48788e-21 2.06027e-27
7999 267 0.0015 -0.23674 -1.87052 0 1.17192e-12 7.26701e-12 0 0 3.56765e-27
7998 267 0.0015 -0.234415 -1.8714 0 6.12557e-12 -1.13024e-11 0 1.00459e-20 4.27416e-26
1481 50 0.0015 0.579128 -1.8714 0 -3.15251e-12 -2.08479e-12 0 0 7.63921e-27
3529 118 0.0015 0.665887 -1.87136 0 -4.43264e-13 1.06087e-12 0 1.57149e-20 1.71203e-26
2650 89 0.0015 -0.6044 -1.86922 0 4.08261e-12 -3.49457e-12 0 0 2.22095e-26
10303 344 0.0015 -0.49619 -1.86852 0 4.89905e-12 5.67914e-13 0 1.68424e-20 3.5384e-26
10302 344 0.0015 -0.493366 -1.86943 0 -1.09524e-11 4.2964e-12 0 1.68424e-20 5.71013e-26
6087 203 0.0015 -0.434641 -1.86821 0 8.97989e-12 -4.72977e-12 0 0 2.8721e-26
6085 203 0.0015 -0.431008 -1.86994 0 1.88699e-12 6.4008e-12 0 4.96948e-20 3.69615e-26
6086 203 0.0015 -0.432824 -1.86908 0 -8.00446e-12 7.26513e-12 0 2.48474e-20 2.98936e-26
8001 267 0.0015 -0.241392 -1.86876 0 2.52097e-12 -3.51438e-13 0 0 2.34829e-27
8000 267 0.0015 -0.239066 -1.86964 0 -3.01478e-12 -3.63925e-12 0 0 8.18957e-28
8012 268 0.0015 -0.171924 -1.86923 0 -1.08869e-12 -3.02276e-12 0 0 1.88315e-26
10332 345 0.0015 -0.0679644 -1.86909 0 2.50254e-12 -9.34626e-12 0 0 6.16585e-26
1957 66 0.0015 0.0127576 -1.86871 0 1.06471e-12 -1.05598e-11 0 0 7.5975e-26
10269 343 0.0015 0.423451 -1.86924 0 3.35548e-12 1.70887e-11 0 2.48474e-20 1.7056e-25
1482 50 0.0015 0.581354 -1.86848 0 9.36767e-13 2.05553e-13 0 0 1.18374e-27
3528 118 0.0015 0.668424 -1.86944 0 -2.4246e-12 -3.78964e-12 0 3.14298e-20 1.01675e-26
2651 89 0.0015 -0.608121 -1.86636 0 -1.04173e-12 7.94093e-13 0 5.32605e-21 3.12388e-27
10305 344 0.0015 -0.501838 -1.8667 0 -7.92898e-12 4.57687e-12 0 2.52637e-20 3.74367e-26
10304 344 0.0015 -0.499014 -1.86761 0 6.72221e-12 -4.98407e-12 0 2.52637e-20 3.35197e-26
6089 203 0.0015 -0.438274 -1.86649 0 4.06856e-12 -5.54774e-13 0 2.48474e-20 1.16992e-26
6088 203 0.0015 -0.436457 -1.86735 0 -9.93749e-12 1.3065e-12 0 2.48474e-20 2.54684e-26
8004 267 0.0015 -0.248369 -1.86612 0 5.83227e-12 2.90041e-12 0 1.00459e-20 8.30591e-27
8003 267 0.0015 -0.246044 -1.867 0 -2.27003e-12 -4.77834e-12 0 1.00459e-20 1.29946e-27
8002 267 0.0015 -0.243718 -1.86788 0 -1.11707e-12 3.74439e-12 0 1.00459e-20 2.22584e-27
8046 269 0.0015 0.152008 -1.86695 0 7.75701e-13 -6.8192e-12 0 0 5.4868e-26
6004 201 0.0015 0.499982 -1.86721 0 -1.04961e-12 -2.5889e-12 0 5.99535e-21 1.21159e-26
3527 118 0.0015 0.670962 -1.86752 0 -1.33404e-12 3.59414e-13 0 1.57149e-20 3.72842e-27
10307 344 0.0015 -0.507486 -1.86489 0 -3.9293e-13 3.64396e-13 0 0 2.49323e-27
10306 344 0.0015 -0.504662 -1.8658 0 3.77832e-12 -2.23577e-12 0 2.52637e-20 8.3401e-27
6090 203 0.0015 -0.440091 -1.86563 0 6.40639e-13 -9.79134e-14 0 2.48474e-20 2.15248e-28
8006 267 0.0015 -0.253021 -1.86436 0 2.9331e-12 3.4551e-12 0 4.01836e-20 9.87996e-28
8005 267 0.0015 -0.250695 -1.86524 0 -5.46598e-12 -2.02107e-12 0 2.00918e-20 8.25596e-27
10333 345 0.0015 -0.0686412 -1.86599 0 -3.73503e-12 1.21487e-11 0 0 7.72017e-26
10203 341 0.0015 0.288506 -1.8653 0 -4.17865e-13 2.73959e-12 0 7.37441e-21 3.96358e-26
4532 152 0.0015 0.364868 -1.86469 0 5.78435e-14 7.04657e-14 0 0 2.49749e-27
10270 343 0.0015 0.424172 -1.86529 0 -2.02818e-12 -1.0291e-11 0 2.48474e-20 7.80754e-26
1483 50 0.0015 0.58358 -1.86557 0 2.05293e-12 2.6425e-12 0 0 9.52511e-27
3526 118 0.0015 0.673499 -1.86561 0 3.60551e-12 3.15064e-12 0 1.57149e-20 1.06535e-26
2652 89 0.0015 -0.611842 -1.86351 0 2.58588e-13 2.01111e-13 0 5.32605e-21 1.85908e-28
10310 344 0.0015 -0.515959 -1.86217 0 1.47903e-11 -4.41561e-12 0 1.68424e-20 9.92839e-26
10309 344 0.0015 -0.513134 -1.86307 0 -8.03718e-12 1.72765e-12 0 1.68424e-20 4.03355e-26
10308 344 0.0015 -0.51031 -1.86398 0 5.07291e-13 4.54506e-13 0 0 2.17176e-27
6036 202 0.0015 -0.337434 -1.86244 0 1.08883e-12 -1.70211e-12 0 5.48788e-21 8.49136e-27
8008 267 0.0015 -0.257673 -1.8626 0 4.22818e-12 -2.98127e-12 0 2.00918e-20 9.36698e-27
8007 267 0.0015 -0.255347 -1.86348 0 -4.32743e-12 -1.24383e-12 0 4.01836e-20 7.25263e-27
10334 345 0.0015 -0.0693181 -1.86288 0 1.40479e-12 -1.24486e-12 0 0 2.48741e-26
1958 66 0.0015 0.0122775 -1.86393 0 -2.45491e-13 1.75145e-12 0 0 4.19212e-26
1484 50 0.0015 0.585807 -1.86266 0 -1.74314e-12 -6.82239e-13 0 0 1.15515e-26
3525 118 0.0015 0.676036 -1.86369 0 -3.60551e-12 -3.15064e-12 0 1.57149e-20 1.06535e-26
2653 89 0.0015 -0.615563 -1.86065 0 4.98093e-13 -6.13175e-13 0 5.32605e-21 1.62332e-27
10312 344 0.0015 -0.521607 -1.86035 0 8.49633e-12 -1.84169e-12 0 0 3.78166e-26
10311 344 0.0015 -0.518783 -1.86126 0 -1.43825e-11 4.0824e-12 0 1.68424e-20 9.39299e-26
8010 267 0.0015 -0.262324 -1.86085 0 7.20071e-13 -1.36455e-12 0 0 9.23385e-28
8009 267 0.0015 -0.259998 -1.86172 0 -1.81075e-12 3.54841e-12 0 0 3.14326e-27
8047 269 0.0015 0.151313 -1.86021 0 -1.7251e-14 -6.9554e-13 0 0 1.70797e-26
10271 343 0.0015 0.424893 -1.86133 0 -9.903e-14 -8.17802e-13 0 1.24237e-20 1.95044e-26
3524 118 0.0015 0.678573 -1.86178 0 1.33404e-12 -3.59414e-13 0 1.57149e-20 3.72842e-27
10314 344 0.0015 -0.527255 -1.85854 0 -1.32816e-12 -3.8132e-12 0 0 3.59871e-27
10313 344 0.0015 -0.524431 -1.85944 0 -3.16449e-12 2.23683e-12 0 0 5.92265e-27
10335 345 0.0015 -0.0699949 -1.85978 0 9.00965e-14 -4.48564e-12 0 0 9.4637e-27
1959 66 0.0015 0.0117974 -1.85915 0 -5.80342e-13 7.09547e-12 0 0 3.46904e-26
4771 160 0.0015 0.0785585 -1.85825 0 4.57318e-16 -6.27974e-14 0 0 1.00741e-29
10204 341 0.0015 0.287705 -1.85857 0 -7.6002e-13 6.355e-12 0 3.6872e-21 4.87946e-26
6005 201 0.0015 0.502997 -1.85945 0 1.47794e-12 3.63089e-12 0 5.99535e-21 1.80784e-26
1485 50 0.0015 0.588033 -1.85975 0 -3.3998e-12 -7.657e-12 0 0 4.78954e-26
3523 118 0.0015 0.681111 -1.85986 0 2.4246e-12 3.78964e-12 0 3.14298e-20 1.01675e-26
2654 89 0.0015 -0.619284 -1.8578 0 -1.91912e-12 1.31187e-12 0 5.32605e-21 3.52932e-27
10316 344 0.0015 -0.532903 -1.85672 0 -7.08119e-12 3.95674e-12 0 0 2.61644e-26
10315 344 0.0015 -0.530079 -1.85763 0 6.34385e-12 9.06796e-13 0 0 1.67066e-26
8013 268 0.0015 -0.167482 -1.85688 0 1.1779e-12 3.26967e-12 0 0 2.22173e-26
10336 345 0.0015 -0.0706718 -1.85667 0 4.79957e-13 -6.7662e-13 0 1.57149e-20 6.40598e-27
4533 152 0.0015 0.36352 -1.85607 0 2.49247e-13 -2.12427e-12 0 0 6.03406e-27
10272 343 0.0015 0.425614 -1.85738 0 5.56077e-13 3.81327e-12 0 0 1.2735e-26
1486 50 0.0015 0.59026 -1.85684 0 3.3998e-12 7.657e-12 0 0 4.78954e-26
3522 118 0.0015 0.683648 -1.85795 0 4.43264e-13 -1.06087e-12 0 1.57149e-20 1.71203e-26
3521 118 0.0015 0.686185 -1.85603 0 -5.33524e-12 -3.05613e-12 0 1.57149e-20 1.64391e-26
2655 89 0.0015 -0.623004 -1.85494 0 1.01346e-12 -5.59457e-13 0 1.06521e-20 2.04118e-27
10318 344 0.0015 -0.538552 -1.85491 0 -1.67657e-12 3.45088e-12 0 1.68424e-20 8.40924e-27
10317 344 0.0015 -0.535727 -1.85581 0 5.44985e-12 -5.49807e-12 0 0 1.95772e-26
6037 202 0.0015 -0.342237 -1.85471 0 -2.29958e-12 3.70399e-12 0 2.74394e-21 2.46825e-26
1960 66 0.0015 0.0113172 -1.85437 0 -7.01014e-14 -6.83319e-13 0 0 3.88551e-26
3520 118 0.0015 0.688722 -1.85412 0 1.25653e-12 5.0061e-13 0 0 1.16126e-26
2656 89 0.0015 -0.626725 -1.85209 0 1.28059e-12 -1.01239e-12 0 1.06521e-20 3.0612e-27
10320 344 0.0015 -0.5442 -1.85309 0 2.3922e-12 -2.43049e-13 0 1.68424e-20 4.55773e-27
10319 344 0.0015 -0.541376 -1.854 0 -3.20483e-12 -6.42019e-13 0 1.68424e-20 4.76613e-27
10337 345 0.0015 -0.0713486 -1.85356 0 -8.21238e-13 6.63752e-12 0 1.57149e-20 2.16562e-26
8048 269 0.0015 0.150617 -1.85348 0 -3.40561e-13 3.90076e-12 0 0 1.53251e-26
10273 343 0.0015 0.426335 -1.85342 0 4.33359e-13 -3.67237e-13 0 0 3.54461e-28
1487 50 0.0015 0.592486 -1.85392 0 1.74314e-12 6.82239e-13 0 0 1.15515e-26
3519 118 0.0015 0.69126 -1.8522 0 2.90129e-12 2.26781e-12 0 0 5.98629e-27
10338 345 0.0015 -0.0720254 -1.85046 0 8.05542e-13 -1.01101e-11 0 3.14298e-20 4.52577e-26
10205 341 0.0015 0.286904 -1.85184 0 1.19922e-12 -9.88368e-12 0 3.6872e-21 9.3332e-26
6006 201 0.0015 0.506013 -1.85168 0 -9.70319e-13 -2.35782e-12 0 5.99535e-21 8.38496e-27
1488 50 0.0015 0.594712 -1.85101 0 -2.05293e-12 -2.6425e-12 0 0 9.52511e-27
3518 118 0.0015 0.693797 -1.85028 0 -5.30908e-12 -4.28094e-12 0 0 2.47817e-26
2657 89 0.0015 -0.630446 -1.84923 0 -3.79833e-12 2.84938e-12 0 5.32605e-21 1.65438e-26
1961 66 0.0015 0.0108371 -1.84959 0 7.77339e-13 -7.00756e-12 0 0 3.31663e-26
4772 160 0.0015 0.0782973 -1.84905 0 -8.76055e-16 1.04377e-13 0 2.71488e-21 1.44911e-29
10274 343 0.0015 0.427056 -1.84946 0 -8.00286e-13 1.59589e-12 0 0 3.12635e-27
1489 50 0.0015 0.596939 -1.8481 0 -9.36767e-13 -2.05553e-13 0 0 1.18374e-27
3517 118 0.0015 0.696334 -1.84837 0 5.26964e-12 4.75538e-12 0 1.57149e-20 2.5672e-26
2658 89 0.0015 -0.634167 -1.84638 0 3.56347e-12 -2.86292e-12 0 0 1.58754e-26
6038 202 0.0015 -0.34704 -1.84697 0 3.13271e-12 -5.13652e-12 0 0 4.68827e-26
10339 345 0.0015 -0.0727023 -1.84735 0 -9.87016e-13 1.03024e-11 0 3.14298e-20 4.70684e-26
8049 269 0.0015 0.149922 -1.84674 0 4.84095e-13 -4.76538e-12 0 0 2.48225e-26
6541 219 0.0015 0.213251 -1.84656 0 2.43295e-13 -2.91989e-12 0 0 1.69521e-26
4534 152 0.0015 0.362172 -1.84745 0 -4.08411e-14 4.59348e-13 0 0 6.77377e-27
3516 118 0.0015 0.698871 -1.84645 0 3.92625e-12 1.2048e-12 0 3.14298e-20 3.53826e-26
8014 268 0.0015 -0.163039 -1.84452 0 -3.26342e-13 -8.94501e-13 0 0 1.64275e-26
10340 345 0.0015 -0.0733791 -1.84424 0 2.99868e-12 -1.49008e-11 0 4.71447e-20 1.17452e-25
1962 66 0.0015 0.010357 -1.84481 0 -5.25459e-13 5.4652e-12 0 0 2.19921e-26
10206 341 0.0015 0.286103 -1.84511 0 -9.77935e-13 8.34083e-12 0 0 6.94552e-26
10275 343 0.0015 0.427777 -1.84551 0 9.46857e-13 -3.37677e-12 0 0 5.5647e-27
1490 50 0.0015 0.599165 -1.84519 0 3.15251e-12 2.08479e-12 0 0 7.63921e-27
3515 118 0.0015 0.701409 -1.84454 0 -1.04617e-11 -5.54117e-12 0 3.14298e-20 6.03489e-26
2659 89 0.0015 -0.637888 -1.84352 0 1.17444e-12 -6.63533e-13 0 0 1.17853e-26
6007 201 0.0015 0.509028 -1.84391 0 1.09286e-12 2.72927e-12 0 0 1.18245e-26
1491 50 0.0015 0.601391 -1.84228 0 -5.32421e-12 -4.86075e-12 0 0 2.77135e-26
3514 118 0.0015 0.703946 -1.84262 0 5.31941e-12 3.30806e-12 0 1.57149e-20 2.91308e-26
2660 89 0.0015 -0.641609 -1.84066 0 -3.41506e-12 2.45949e-12 0 0 1.24147e-26
10341 345 0.0015 -0.074056 -1.84114 0 -4.2513e-12 1.63081e-11 0 3.14298e-20 1.33284e-25
1963 66 0.0015 0.00987681 -1.84004 0 3.07344e-13 -3.88153e-12 0 0 1.01134e-26
10276 343 0.0015 0.428498 -1.84155 0 -9.46857e-13 3.37677e-12 0 0 5.5647e-27
3513 118 0.0015 0.706483 -1.84071 0 3.90925e-12 1.39606e-12 0 0 1.79595e-26
6039 202 0.0015 -0.351842 -1.83924 0 -2.36932e-12 3.93039e-12 0 2.74394e-21 3.37118e-26
10342 345 0.0015 -0.0747328 -1.83803 0 1.94952e-12 -5.52764e-12 0 1.57149e-20 3.50291e-26
4773 160 0.0015 0.0780361 -1.83985 0 -4.85907e-14 1.71409e-12 0 2.71488e-21 7.88876e-27
8050 269 0.0015 0.149226 -1.84 0 -6.26586e-13 5.90592e-12 0 3.6872e-21 3.36566e-26
6542 219 0.0015 0.21269 -1.83947 0 -3.54399e-13 3.93928e-12 0 0 1.90266e-26
10207 341 0.0015 0.285302 -1.83839 0 5.88585e-13 -5.27746e-12 0 0 2.80594e-26
4535 152 0.0015 0.360823 -1.83883 0 1.66508e-13 -8.6937e-13 0 0 1.00696e-26
1492 50 0.0015 0.603618 -1.83936 0 4.88934e-12 5.43127e-12 0 0 2.87266e-26
3512 118 0.0015 0.70902 -1.83879 0 -1.21715e-11 -7.64059e-12 0 0 1.03194e-25
2661 89 0.0015 -0.64533 -1.83781 0 1.55698e-12 -7.87269e-13 0 0 3.0579e-27
10277 343 0.0015 0.429219 -1.8376 0 8.00286e-13 -1.59589e-12 0 0 3.12635e-27
6008 201 0.0015 0.512043 -1.83614 0 -1.657e-12 -4.21374e-12 0 0 2.3856e-26
1493 50 0.0015 0.605844 -1.83645 0 -2.11234e-12 -2.5459e-12 0 0 7.90469e-27
3511 118 0.0015 0.711558 -1.83688 0 8.05323e-12 5.66072e-12 0 0 8.54719e-26
2662 89 0.0015 -0.649051 -1.83495 0 -1.41853e-12 3.87794e-13 0 0 1.82248e-27
10343 345 0.0015 -0.0754097 -1.83493 0 -2.74383e-13 3.79848e-13 0 0 8.97525e-28
1964 66 0.0015 0.00939668 -1.83526 0 -9.21884e-14 1.69088e-12 0 0 5.38947e-27
2663 89 0.0015 -0.652772 -1.8321 0 1.47428e-12 -6.29825e-13 0 0 1.96758e-27
10171 340 0.0015 -0.234195 -1.83312 0 5.3723e-13 -7.27144e-13 0 0 1.77414e-27
8015 268 0.0015 -0.158597 -1.83216 0 -9.58353e-13 -2.66024e-12 0 0 1.61702e-26
8051 269 0.0015 0.14853 -1.83326 0 4.82911e-13 -4.58665e-12 0 3.6872e-21 2.03787e-26
6543 219 0.0015 0.212128 -1.83239 0 -1.45946e-14 1.06041e-12 0 3.51396e-21 1.06443e-26
10278 343 0.0015 0.429939 -1.83364 0 -4.33359e-13 3.67237e-13 0 0 3.54461e-28
1494 50 0.0015 0.60807 -1.83354 0 1.43739e-12 1.47749e-12 0 0 2.53256e-27
6040 202 0.0015 -0.356645 -1.83151 0 5.15502e-13 -9.14535e-13 0 2.74394e-21 3.12982e-27
10344 345 0.0015 -0.0760865 -1.83182 0 -3.32139e-13 1.38962e-13 0 1.57149e-20 1.77717e-27
1965 66 0.0015 0.00891654 -1.83048 0 -3.97271e-13 3.4785e-12 0 0 1.3817e-26
4774 160 0.0015 0.0777749 -1.83066 0 1.15399e-13 -4.10412e-12 0 2.71488e-21 2.19918e-26
10208 341 0.0015 0.284501 -1.83166 0 -1.10995e-13 1.27644e-12 0 0 8.68506e-27
4536 152 0.0015 0.359475 -1.83021 0 -7.47852e-13 4.54102e-12 0 0 2.68087e-26
1495 50 0.0015 0.610297 -1.83063 0 -2.31053e-12 -2.72421e-12 0 0 6.6846e-27
2664 89 0.0015 -0.656493 -1.82924 0 2.70944e-12 -2.28295e-12 0 5.32605e-21 2.02735e-26
10345 345 0.0015 -0.0767633 -1.82871 0 1.75741e-12 -4.93156e-12 0 1.57149e-20 1.5855e-26
10279 343 0.0015 0.43066 -1.82968 0 -5.56077e-13 -3.81327e-12 0 0 1.2735e-26
6009 201 0.0015 0.515058 -1.82837 0 1.54942e-12 3.9428e-12 0 0 2.12222e-26
2665 89 0.0015 -0.660213 -1.82639 0 -7.36889e-12 6.00239e-12 0 1.06521e-20 6.05624e-26
10172 340 0.0015 -0.238704 -1.82673 0 2.27325e-13 -3.75616e-13 0 0 5.68407e-27
8052 269 0.0015 0.147835 -1.82652 0 -5.21775e-13 5.12407e-12 0 3.6872e-21 2.62294e-26
1496 50 0.0015 0.612523 -1.82772 0 9.73863e-13 2.13385e-12 0 6.81478e-21 4.53001e-27
10346 345 0.0015 -0.0774402 -1.82561 0 -3.94296e-12 1.31529e-11 0 1.57149e-20 9.61554e-26
1966 66 0.0015 0.0084364 -1.8257 0 4.58028e-13 -4.05343e-12 0 0 1.472e-26
6544 219 0.0015 0.211567 -1.8253 0 2.52021e-13 -4.28248e-12 0 3.51396e-21 1.81774e-26
10209 341 0.0015 0.2837 -1.82493 0 -3.6587e-13 2.64739e-12 0 0 8.06795e-27
10280 343 0.0015 0.431381 -1.82573 0 9.903e-14 8.17802e-13 0 1.24237e-20 1.95044e-26
1497 50 0.0015 0.614749 -1.8248 0 -8.77477e-14 -1.93005e-12 0 6.81478e-21 2.03353e-27
2666 89 0.0015 -0.663934 -1.82353 0 3.55662e-12 -3.21356e-12 0 1.59781e-20 4.13098e-26
6041 202 0.0015 -0.361448 -1.82377 0 -8.17665e-13 1.34442e-12 0 2.74394e-21 6.77297e-27
10347 345 0.0015 -0.078117 -1.8225 0 5.87227e-12 -2.04948e-11 0 0 2.01764e-25
2667 89 0.0015 -0.667655 -1.82068 0 2.09627e-12 -1.88045e-12 0 1.06521e-20 6.09729e-27
10173 340 0.0015 -0.243212 -1.82034 0 -1.391e-13 2.16919e-13 0 6.39056e-21 6.46356e-27
1967 66 0.0015 0.00795626 -1.82092 0 9.70153e-14 -1.92629e-12 0 0 1.14854e-26
4775 160 0.0015 0.0775136 -1.82146 0 -1.01152e-13 3.56184e-12 0 0 1.78736e-26
4537 152 0.0015 0.358127 -1.82159 0 2.94192e-13 -1.88392e-12 0 5.72705e-21 2.07141e-26
10281 343 0.0015 0.432102 -1.82177 0 2.02818e-12 1.0291e-11 0 2.48474e-20 7.80754e-26
6010 201 0.0015 0.518074 -1.8206 0 -1.62594e-12 -4.26601e-12 0 0 2.51747e-26
1498 50 0.0015 0.616976 -1.82189 0 6.73746e-13 2.19658e-12 0 1.36296e-20 2.57617e-27
8016 268 0.0015 -0.154154 -1.81981 0 8.4931e-13 2.31356e-12 0 1.90242e-21 1.41425e-26
10348 345 0.0015 -0.0787939 -1.81939 0 -4.70667e-12 1.59966e-11 0 0 1.42082e-25
8053 269 0.0015 0.147139 -1.81978 0 5.78768e-13 -5.83094e-12 0 0 3.24986e-26
6545 219 0.0015 0.211005 -1.81821 0 -8.5119e-14 2.33571e-12 0 3.51396e-21 9.64068e-27
10210 341 0.0015 0.282899 -1.8182 0 4.7075e-14 4.91224e-14 0 0 1.44085e-26
1499 50 0.0015 0.619202 -1.81898 0 -2.21942e-13 -6.64038e-13 0 6.81478e-21 5.86132e-28
2668 89 0.0015 -0.671376 -1.81782 0 1.16527e-12 3.96513e-13 0 5.32605e-21 1.47297e-26
6042 202 0.0015 -0.366251 -1.81604 0 2.57266e-12 -4.11157e-12 0 0 3.28967e-26
10349 345 0.0015 -0.0794707 -1.81629 0 3.13078e-12 -1.20068e-11 0 0 7.06011e-26
1968 66 0.0015 0.00747613 -1.81614 0 -2.27366e-13 3.47892e-12 0 0 1.10885e-26
10282 343 0.0015 0.432823 -1.81781 0 -3.35548e-12 -1.70887e-11 0 2.48474e-20 1.7056e-25
1500 50 0.0015 0.621428 -1.81607 0 -6.85505e-14 -6.20417e-14 0 6.81478e-21 8.41972e-30
2669 89 0.0015 -0.675097 -1.81497 0 -4.21698e-12 2.06951e-12 0 0 1.4216e-26
5941 199 0.0015 0.740778 -1.81551 0 6.73031e-13 2.78196e-12 0 0 2.18589e-26
2670 89 0.0015 -0.678818 -1.81211 0 1.68632e-12 -9.41328e-13 0 0 4.75724e-27
10174 340 0.0015 -0.24772 -1.81396 0 -4.21219e-13 5.25961e-13 0 1.27811e-20 2.92188e-27
10350 345 0.0015 -0.0801475 -1.81318 0 -1.64251e-12 7.25895e-12 0 0 4.89119e-26
4776 160 0.0015 0.0772524 -1.81226 0 8.78001e-15 -3.04956e-13 0 0 5.87713e-27
8054 269 0.0015 0.146443 -1.81304 0 -3.92396e-13 4.11031e-12 0 0 1.75797e-26
4538 152 0.0015 0.356779 -1.81297 0 9.88118e-14 -3.6731e-13 0 1.14541e-20 2.49396e-27
10283 343 0.0015 0.433544 -1.81386 0 2.66533e-12 1.3552e-11 0 2.48474e-20 1.20882e-25
6011 201 0.0015 0.521089 -1.81283 0 2.07349e-12 5.66611e-12 0 0 4.24225e-26
1969 66 0.0015 0.00699599 -1.81136 0 -5.40414e-13 4.47134e-12 0 0 3.65099e-26
6546 219 0.0015 0.210443 -1.81113 0 -2.12348e-13 1.61171e-12 0 0 6.09986e-27
10211 341 0.0015 0.282098 -1.81148 0 4.27023e-13 -3.8128e-12 0 0 1.38632e-26
6043 202 0.0015 -0.371054 -1.8083 0 -3.86059e-12 6.18665e-12 0 0 6.81807e-26
10284 343 0.0015 0.434265 -1.8099 0 -4.86276e-13 -1.68054e-12 0 1.24237e-20 2.90562e-26
10175 340 0.0015 -0.252228 -1.80757 0 -1.92891e-12 2.91722e-12 0 1.27811e-20 2.10205e-26
8017 268 0.0015 -0.149712 -1.80745 0 -1.44946e-13 -3.53603e-13 0 1.90242e-21 1.39267e-27
1970 66 0.0015 0.00651585 -1.80658 0 1.0159e-12 -9.63414e-12 0 0 6.29151e-26
8055 269 0.0015 0.145748 -1.8063 0 3.08546e-14 -6.28362e-13 0 0 5.01608e-27
5942 199 0.0015 0.743061 -1.80618 0 -7.4057e-13 -3.10125e-12 0 0 2.21429e-26
6547 219 0.0015 0.209882 -1.80404 0 3.5325e-13 -3.97869e-12 0 0 1.59869e-26
10212 341 0.0015 0.281297 -1.80475 0 -3.59548e-13 3.20849e-12 0 0 1.00321e-26
4539 152 0.0015 0.35543 -1.80435 0 3.3985e-13 -2.53777e-12 0 1.71811e-20 1.08651e-26