ITEM: TIMESTEP
27520
ITEM: NUMBER OF ATOMS
10500
ITEM: BOX BOUNDS pp pp pp
-1.0249999999999999e+00 1.0249999999999999e+00
-2.0000000000000000e+00 2.0000000000000000e+00
-5.0000000000000003e-02 5.0000000000000003e-02
ITEM: ATOMS id type radius x y z fx fy fz c_bendingE c_stretchingE
10321 345 0.0015 -0.0605191 -1.90326 0 2.29234e-13 -1.35386e-12 0 0 1.6614e-27
6031 202 0.0015 -0.31342 -1.90111 0 -1.02325e-13 1.72448e-13 0 0 1.01637e-28
10322 345 0.0015 -0.061196 -1.90016 0 2.68114e-13 -5.29754e-13 0 0 5.00669e-27
8041 269 0.0015 0.155487 -1.90065 0 -1.3023e-13 1.34892e-12 0 0 3.45602e-27
10261 343 0.0015 0.417684 -1.90089 0 4.53362e-13 1.71475e-12 0 0 3.49263e-27
1471 50 0.0015 0.556864 -1.90052 0 6.38587e-13 1.75521e-13 0 0 2.83102e-28
10323 345 0.0015 -0.0618728 -1.89705 0 -6.53687e-13 2.61931e-12 0 0 3.84483e-27
1951 66 0.0015 0.0156385 -1.89738 0 1.07052e-13 -9.92539e-13 0 0 1.32954e-27
10262 343 0.0015 0.418405 -1.89694 0 -1.04714e-12 -3.49486e-12 0 1.24237e-20 7.34773e-27
1472 50 0.0015 0.559091 -1.8976 0 2.89552e-13 1.76783e-12 0 0 4.80588e-27
2641 89 0.0015 -0.570912 -1.89491 0 5.20347e-13 -5.34423e-13 0 0 7.09876e-28
1473 50 0.0015 0.561317 -1.89469 0 -7.90864e-13 -1.60331e-12 0 0 4.65003e-27
2642 89 0.0015 -0.574633 -1.89206 0 -4.99975e-13 6.65139e-13 0 0 7.15115e-28
6032 202 0.0015 -0.318223 -1.89337 0 -1.86873e-13 2.71947e-13 0 0 8.12233e-28
10324 345 0.0015 -0.0625496 -1.89394 0 -1.75966e-13 8.25365e-13 0 0 2.7491e-27
1952 66 0.0015 0.0151583 -1.8926 0 -2.75203e-13 2.55867e-12 0 0 4.63945e-27
8042 269 0.0015 0.154791 -1.89391 0 1.43537e-13 -1.71696e-12 0 0 3.71011e-27
10263 343 0.0015 0.419126 -1.89298 0 8.49955e-13 2.24983e-12 0 1.24237e-20 4.14338e-27
3540 118 0.0015 0.637977 -1.89243 0 4.51803e-13 -5.97033e-13 0 0 6.5224e-34
6061 203 0.0015 -0.387409 -1.89062 0 1.99651e-12 -2.11671e-12 0 0 4.10512e-27
10325 345 0.0015 -0.0632265 -1.89084 0 8.40803e-13 -4.19733e-12 0 0 8.61153e-27
10231 342 0.0015 0.215 -1.89 0 4.64648e-13 0 0 0 4.13597e-29
10232 342 0.0015 0.21569 -1.89 0 -8.69527e-13 0 0 0 7.27289e-29
10233 342 0.0015 0.216379 -1.89 0 1.45106e-13 0 0 0 4.42967e-29
10234 342 0.0015 0.217069 -1.89 0 -9.41747e-13 0 0 0 2.89489e-28
10235 342 0.0015 0.217759 -1.89 0 3.91165e-12 0 0 0 1.68384e-27
10236 342 0.0015 0.218448 -1.89 0 -5.39716e-12 0 0 0 2.78999e-27
10237 342 0.0015 0.219138 -1.89 0 6.48445e-12 0 0 0 4.1446e-27
10238 342 0.0015 0.219828 -1.89 0 -8.00507e-12 0 0 0 6.15387e-27
10239 342 0.0015 0.220517 -1.89 0 8.69283e-12 0 0 0 7.24578e-27
10240 342 0.0015 0.221207 -1.89 0 -9.34547e-12 0 0 0 8.37834e-27
10241 342 0.0015 0.221897 -1.89 0 9.74368e-12 0 0 0 9.09344e-27
10242 342 0.0015 0.222586 -1.89 0 -1.11192e-11 0 0 0 1.20192e-26
10243 342 0.0015 0.223276 -1.89 0 1.23143e-11 0 0 0 1.45295e-26
10244 342 0.0015 0.223966 -1.89 0 -1.10827e-11 0 0 0 1.18775e-26
10245 342 0.0015 0.224655 -1.89 0 1.0323e-11 0 0 0 1.02167e-26
10246 342 0.0015 0.225345 -1.89 0 -1.0323e-11 0 0 0 1.02167e-26
10247 342 0.0015 0.226034 -1.89 0 1.10827e-11 0 0 0 1.18775e-26
10248 342 0.0015 0.226724 -1.89 0 -1.23143e-11 0 0 0 1.45295e-26
10249 342 0.0015 0.227414 -1.89 0 1.11192e-11 0 0 0 1.20192e-26
10250 342 0.0015 0.228103 -1.89 0 -9.74368e-12 0 0 0 9.09344e-27
10251 342 0.0015 0.228793 -1.89 0 9.34547e-12 0 0 0 8.37834e-27
10252 342 0.0015 0.229483 -1.89 0 -8.69283e-12 0 0 0 7.24578e-27
10253 342 0.0015 0.230172 -1.89 0 8.00507e-12 0 0 0 6.15387e-27
10254 342 0.0015 0.230862 -1.89 0 -6.48445e-12 0 0 0 4.1446e-27
10255 342 0.0015 0.231552 -1.89 0 5.39716e-12 0 0 0 2.78999e-27
10256 342 0.0015 0.232241 -1.89 0 -3.91165e-12 0 0 0 1.68384e-27
10257 342 0.0015 0.232931 -1.89 0 9.41747e-13 0 0 0 2.89489e-28
10258 342 0.0015 0.233621 -1.89 0 -1.45106e-13 0 0 0 4.42967e-29
10259 342 0.0015 0.23431 -1.89 0 8.69527e-13 0 0 0 7.27289e-29
10260 342 0.0015 0.235 -1.89 0 -4.64648e-13 0 0 0 4.13597e-29
6001 201 0.0015 0.490936 -1.89052 0 7.89741e-13 2.02897e-12 0 0 1.09729e-26
1474 50 0.0015 0.563543 -1.89178 0 -2.4819e-13 -7.69429e-13 0 0 2.97129e-28
3539 118 0.0015 0.640514 -1.89051 0 -1.29735e-12 1.35429e-12 0 1.57149e-20 4.21753e-29
2643 89 0.0015 -0.578354 -1.8892 0 8.22757e-13 -6.68266e-13 0 0 1.29802e-27
6063 203 0.0015 -0.391043 -1.8889 0 1.98239e-12 -1.80988e-12 0 0 4.7822e-27
6064 203 0.0015 -0.392859 -1.88804 0 -2.88807e-12 -1.13923e-12 0 0 3.44563e-27
6062 203 0.0015 -0.389226 -1.88976 0 -4.03881e-12 4.59239e-12 0 0 8.82294e-27
10264 343 0.0015 0.419847 -1.88903 0 -9.99468e-14 4.17559e-13 0 1.24237e-20 1.19492e-27
1475 50 0.0015 0.56577 -1.88887 0 1.57802e-12 1.85439e-12 0 0 4.33751e-27
3538 118 0.0015 0.643052 -1.8886 0 3.67593e-12 9.26341e-13 0 1.57149e-20 9.50448e-27
2644 89 0.0015 -0.582074 -1.88635 0 -7.49518e-13 2.04323e-13 0 0 1.39283e-27
6066 203 0.0015 -0.396492 -1.88631 0 6.4408e-12 1.71228e-12 0 2.48474e-20 1.21776e-26
6065 203 0.0015 -0.394676 -1.88717 0 2.23721e-12 -7.08808e-15 0 0 3.48752e-27
7981 267 0.0015 -0.194876 -1.88635 0 1.01699e-12 -1.59695e-12 0 0 1.58776e-27
10326 345 0.0015 -0.0639033 -1.88773 0 -1.35069e-12 6.39086e-12 0 0 1.94368e-26
1953 66 0.0015 0.0146782 -1.88782 0 2.11472e-13 -1.88081e-12 0 0 3.44435e-27
8043 269 0.0015 0.154095 -1.88717 0 -2.62221e-14 7.32981e-13 0 0 5.03906e-28
3537 118 0.0015 0.645589 -1.88668 0 -2.84924e-12 -1.83894e-12 0 1.57149e-20 9.47273e-27
6068 203 0.0015 -0.400126 -1.88459 0 3.98903e-12 2.27373e-12 0 7.45423e-20 2.0217e-27
6067 203 0.0015 -0.398309 -1.88545 0 -8.23678e-12 -2.78224e-12 0 4.96948e-20 1.35014e-26
6033 202 0.0015 -0.323025 -1.88564 0 4.02307e-13 -5.732e-13 0 0 7.82903e-28
7983 267 0.0015 -0.199527 -1.8846 0 -1.41905e-12 -2.58454e-12 0 0 7.25188e-29
7982 267 0.0015 -0.197202 -1.88548 0 -2.13928e-13 3.41722e-12 0 0 1.59569e-27
10327 345 0.0015 -0.0645802 -1.88463 0 1.3801e-12 -5.59522e-12 0 1.57149e-20 1.63064e-26
10265 343 0.0015 0.420568 -1.88507 0 -5.52506e-13 -2.61047e-12 0 0 4.39161e-27
1476 50 0.0015 0.567996 -1.88596 0 -3.8128e-12 -3.08386e-12 0 0 1.1826e-26
3536 118 0.0015 0.648126 -1.88476 0 -3.56207e-12 -2.32644e-12 0 0 1.6746e-26
2645 89 0.0015 -0.585795 -1.88349 0 -8.83331e-13 1.03608e-12 0 0 1.54845e-27
6071 203 0.0015 -0.405575 -1.882 0 8.50352e-12 3.34351e-13 0 2.48474e-20 1.64219e-26
6070 203 0.0015 -0.403759 -1.88287 0 -4.1804e-12 5.20191e-12 0 4.96948e-20 1.24786e-26
6069 203 0.0015 -0.401942 -1.88373 0 -1.11662e-12 -3.53749e-12 0 7.45423e-20 1.91049e-27
7985 267 0.0015 -0.204179 -1.88284 0 -1.02274e-12 3.6632e-13 0 0 4.07733e-28
7984 267 0.0015 -0.201853 -1.88372 0 1.06864e-12 4.64453e-13 0 0 2.58201e-28
1954 66 0.0015 0.0141981 -1.88304 0 2.06678e-14 -5.18842e-13 0 0 1.06627e-27
6002 201 0.0015 0.493952 -1.88275 0 -5.18029e-13 -1.31366e-12 0 5.99535e-21 1.23281e-26
1477 50 0.0015 0.570222 -1.88304 0 3.95796e-12 2.44976e-12 0 0 1.02897e-26
3535 118 0.0015 0.650663 -1.88285 0 5.24248e-12 3.5464e-12 0 1.57149e-20 2.01543e-26
2646 89 0.0015 -0.589516 -1.88064 0 1.78191e-12 -1.24327e-12 0 0 3.07141e-27
6073 203 0.0015 -0.409209 -1.88028 0 -1.45116e-12 2.42631e-12 0 0 1.86219e-27
6072 203 0.0015 -0.407392 -1.88114 0 -5.77419e-12 -6.50635e-12 0 0 5.49181e-27
7988 267 0.0015 -0.211156 -1.8802 0 -1.96288e-12 5.57131e-12 0 0 5.03308e-27
7987 267 0.0015 -0.208831 -1.88108 0 1.33436e-12 -3.92152e-12 0 0 2.66907e-27
7986 267 0.0015 -0.206505 -1.88196 0 1.82955e-13 1.38359e-12 0 0 7.43056e-28
8011 268 0.0015 -0.176367 -1.88159 0 2.89633e-13 7.9095e-13 0 0 2.5877e-27
10328 345 0.0015 -0.065257 -1.88152 0 -4.74399e-13 1.11859e-12 0 1.57149e-20 3.68796e-27
8044 269 0.0015 0.1534 -1.88043 0 2.60804e-13 -2.86705e-12 0 0 1.21468e-26
10266 343 0.0015 0.421289 -1.88111 0 8.47615e-13 3.67053e-12 0 0 7.9385e-27
1478 50 0.0015 0.572449 -1.88013 0 -1.76044e-12 -4.13837e-13 0 6.81478e-21 2.67597e-27
3534 118 0.0015 0.653201 -1.88093 0 -1.20209e-12 -1.96207e-13 0 3.14298e-20 4.11817e-27
10292 344 0.0015 -0.465124 -1.8785 0 3.80351e-12 2.73682e-13 0 1.68424e-20 8.16302e-27
10291 344 0.0015 -0.4623 -1.87941 0 -3.16396e-12 3.51007e-13 0 0 8.01921e-27
6074 203 0.0015 -0.411025 -1.87942 0 3.93295e-12 5.44647e-12 0 2.48474e-20 1.76705e-27
6075 203 0.0015 -0.412842 -1.87856 0 2.11499e-12 -6.86438e-12 0 2.48474e-20 1.07629e-26
7990 267 0.0015 -0.215808 -1.87844 0 2.09834e-12 5.09195e-12 0 0 1.69831e-27
7989 267 0.0015 -0.213482 -1.87932 0 9.11994e-13 -6.27193e-12 0 0 3.61886e-27
10329 345 0.0015 -0.0659339 -1.87841 0 -3.34492e-13 1.7954e-12 0 1.57149e-20 1.53754e-27
1955 66 0.0015 0.0137179 -1.87827 0 7.23614e-14 -3.64523e-13 0 0 2.87119e-27
10201 341 0.0015 0.290108 -1.87875 0 4.22759e-13 -3.68589e-12 0 0 2.59027e-26
3533 118 0.0015 0.655738 -1.87902 0 2.92964e-13 -1.1002e-12 0 4.71447e-20 8.87054e-28
2647 89 0.0015 -0.593237 -1.87778 0 -2.12209e-12 9.95686e-13 0 0 3.41732e-27
10294 344 0.0015 -0.470773 -1.87669 0 -2.35735e-12 5.40781e-13 0 1.68424e-20 3.3417e-27
10293 344 0.0015 -0.467948 -1.87759 0 1.17473e-12 -1.39793e-12 0 1.68424e-20 3.32166e-27
6077 203 0.0015 -0.416475 -1.87683 0 8.42803e-12 -2.13177e-12 0 2.48474e-20 2.38952e-26
6076 203 0.0015 -0.414658 -1.87769 0 -9.52208e-12 4.23372e-12 0 2.48474e-20 3.1108e-26
6034 202 0.0015 -0.327828 -1.87791 0 -6.01793e-13 8.32484e-13 0 0 1.9235e-27
7992 267 0.0015 -0.22046 -1.87668 0 -1.77894e-12 2.0166e-12 0 0 3.27135e-27
7991 267 0.0015 -0.218134 -1.87756 0 -2.23516e-12 -3.15304e-12 0 0 1.00324e-27
10267 343 0.0015 0.42201 -1.87716 0 -5.22989e-13 -1.85022e-12 0 0 4.46117e-27
1479 50 0.0015 0.574675 -1.87722 0 -2.47311e-12 -3.82531e-12 0 1.36296e-20 1.91477e-26
3532 118 0.0015 0.658275 -1.8771 0 -1.83674e-12 -4.92991e-14 0 3.14298e-20 1.13308e-27
2648 89 0.0015 -0.596958 -1.87493 0 1.86308e-12 -5.25064e-13 0 0 2.30183e-27
10296 344 0.0015 -0.476421 -1.87487 0 1.65318e-12 -1.17404e-12 0 3.36849e-20 1.75945e-27
10295 344 0.0015 -0.473597 -1.87578 0 1.48785e-13 9.70609e-13 0 1.68424e-20 4.61666e-28
6080 203 0.0015 -0.421925 -1.87425 0 6.55578e-12 1.01479e-11 0 4.96948e-20 1.14176e-27
6079 203 0.0015 -0.420108 -1.87511 0 -5.25683e-12 -6.94608e-12 0 7.45423e-20 1.19753e-27
6078 203 0.0015 -0.418291 -1.87597 0 -9.68045e-13 2.91136e-12 0 4.96948e-20 3.48405e-27
7995 267 0.0015 -0.227437 -1.87404 0 1.05702e-12 -2.52853e-12 0 0 1.27625e-27
7994 267 0.0015 -0.225111 -1.87492 0 -9.96138e-13 1.55671e-12 0 0 7.59001e-28
7993 267 0.0015 -0.222785 -1.8758 0 2.71808e-12 -1.01104e-12 0 0 3.61263e-27
10330 345 0.0015 -0.0666107 -1.87531 0 1.53539e-12 -6.53168e-12 0 1.57149e-20 2.87983e-26
6003 201 0.0015 0.496967 -1.87498 0 -7.88263e-13 -2.07175e-12 0 5.99535e-21 6.23164e-27
1480 50 0.0015 0.576901 -1.87431 0 5.03455e-12 6.21014e-12 0 2.04443e-20 3.27415e-26
3531 118 0.0015 0.660812 -1.87519 0 3.53565e-12 1.73449e-12 0 1.57149e-20 8.02873e-27
2649 89 0.0015 -0.600679 -1.87207 0 -5.71361e-13 -4.19239e-13 0 0 7.44049e-28
10299 344 0.0015 -0.484893 -1.87215 0 6.85894e-12 -2.89853e-12 0 0 2.27487e-26
10298 344 0.0015 -0.482069 -1.87306 0 -3.55418e-12 1.60073e-12 0 1.68424e-20 1.01106e-26
10297 344 0.0015 -0.479245 -1.87396 0 -9.37981e-13 1.51105e-13 0 3.36849e-20 1.58866e-27
6082 203 0.0015 -0.425558 -1.87252 0 -4.0836e-12 8.13501e-12 0 2.48474e-20 1.43941e-26
6081 203 0.0015 -0.423741 -1.87338 0 -1.11707e-12 -1.0613e-11 0 2.48474e-20 7.62342e-27
7997 267 0.0015 -0.232089 -1.87228 0 5.28802e-13 1.10156e-12 0 0 4.05172e-28
7996 267 0.0015 -0.229763 -1.87316 0 -4.42036e-13 6.6352e-13 0 0 1.0529e-27
10331 345 0.0015 -0.0672875 -1.8722 0 -2.18769e-12 9.60184e-12 0 1.57149e-20 4.36315e-26
1956 66 0.0015 0.0132378 -1.87349 0 -2.01539e-13 1.80078e-12 0 0 2.42968e-27
8045 269 0.0015 0.152704 -1.87369 0 -3.98851e-13 3.94538e-12 0 0 1.58599e-26
10202 341 0.0015 0.289307 -1.87202 0 -5.95497e-13 5.37608e-12 0 0 3.13334e-26
4531 152 0.0015 0.366216 -1.8733 0 8.85496e-14 -6.05672e-13 0 5.72705e-21 9.07827e-28
10268 343 0.0015 0.422731 -1.8732 0 -2.4743e-14 -8.19677e-13 0 0 5.9989e-28
3530 118 0.0015 0.66335 -1.87327 0 -4.87676e-12 -2.74902e-12 0 1.57149e-20 1.35992e-26
10301 344 0.0015 -0.490541 -1.87033 0 2.93013e-12 6.53522e-14 0 1.68424e-20 6.27348e-27
10300 344 0.0015 -0.487717 -1.87124 0 -6.30427e-12 2.26599e-12 0 0 1.90385e-26
6084 203 0.0015 -0.429191 -1.8708 0 1.1309e-12 -1.52371e-12 0 4.96948e-20 8.49149e-28
6083 203 0.0015 -0.427374 -1.87166 0 2.14463e-12 -2.22244e-12 0 4.96948e-20 6.98112e-27
6035 202 0.0015 -0.332631 -1.87017 0 8.73527e-13 -1.25059e-12 0 2.74394e-21 2.97837e-27
7999 267 0.0015 -0.23674 -1.87052 0 2.07811e-13 3.35777e-12 0 0 3.45974e-27
7998 267 0.0015 -0.234415 -1.8714 0 -2.33152e-12 -1.64932e-12 0 0 9.40443e-28
1481 50 0.0015 0.579128 -1.8714 0 -2.86385e-12 -2.94068e-12 0 2.04443e-20 1.38144e-26
3529 118 0.0015 0.665887 -1.87136 0 4.23757e-12 2.3411e-12 0 1.57149e-20 1.03227e-26
2650 89 0.0015 -0.6044 -1.86922 0 -1.65974e-12 1.71771e-12 0 0 5.1214e-27
10303 344 0.0015 -0.49619 -1.86852 0 -1.34757e-12 9.04911e-13 0 1.68424e-20 4.01052e-27
10302 344 0.0015 -0.493366 -1.86943 0 1.62362e-12 -1.87891e-12 0 1.68424e-20 3.74177e-27
6087 203 0.0015 -0.434641 -1.86821 0 -2.68279e-12 4.55901e-12 0 0 6.94902e-27
6085 203 0.0015 -0.431008 -1.86994 0 -2.05027e-13 -8.01752e-13 0 2.48474e-20 1.50825e-27
6086 203 0.0015 -0.432824 -1.86908 0 1.03102e-13 7.88823e-13 0 0 1.40798e-27
8001 267 0.0015 -0.241392 -1.86876 0 -3.60315e-12 1.03994e-12 0 0 5.41211e-27
8000 267 0.0015 -0.239066 -1.86964 0 3.50357e-12 -3.51335e-12 0 0 7.14928e-27
8012 268 0.0015 -0.171924 -1.86923 0 -4.47697e-13 -1.20188e-12 0 0 3.29439e-27
10332 345 0.0015 -0.0679644 -1.86909 0 5.45972e-13 -2.30703e-12 0 1.57149e-20 1.9018e-26
1957 66 0.0015 0.0127576 -1.86871 0 -4.31679e-14 5.83562e-13 0 0 2.38342e-27
10269 343 0.0015 0.423451 -1.86924 0 4.65938e-13 2.7006e-12 0 1.24237e-20 5.11533e-27
1482 50 0.0015 0.581354 -1.86848 0 -6.42309e-13 -1.20381e-12 0 1.36296e-20 3.33769e-27
3528 118 0.0015 0.668424 -1.86944 0 -2.67143e-12 -1.67614e-12 0 1.57149e-20 4.80983e-27
2651 89 0.0015 -0.608121 -1.86636 0 2.79874e-12 -2.20679e-12 0 0 8.33548e-27
10305 344 0.0015 -0.501838 -1.8667 0 -3.33779e-12 1.0308e-12 0 0 9.6736e-27
10304 344 0.0015 -0.499014 -1.86761 0 -4.60549e-13 2.1367e-13 0 0 2.72574e-28
6089 203 0.0015 -0.438274 -1.86649 0 -6.6142e-12 1.2835e-12 0 0 1.23837e-26
6088 203 0.0015 -0.436457 -1.86735 0 4.38052e-12 -4.72909e-12 0 0 1.0174e-26
8004 267 0.0015 -0.248369 -1.86612 0 -9.60348e-13 2.39197e-12 0 1.00459e-20 1.10608e-27
8003 267 0.0015 -0.246044 -1.867 0 3.38337e-13 -1.61737e-12 0 1.00459e-20 8.17148e-28
8002 267 0.0015 -0.243718 -1.86788 0 1.76707e-12 7.12009e-13 0 1.00459e-20 1.04701e-27
8046 269 0.0015 0.152008 -1.86695 0 3.03325e-13 -2.82153e-12 0 3.6872e-21 7.58124e-27
6004 201 0.0015 0.499982 -1.86721 0 1.17193e-12 3.07421e-12 0 5.99535e-21 1.27006e-26
3527 118 0.0015 0.670962 -1.86752 0 -8.4705e-13 -1.06826e-12 0 0 6.02836e-27
10307 344 0.0015 -0.507486 -1.86489 0 -5.21396e-12 2.68724e-12 0 0 1.47431e-26
10306 344 0.0015 -0.504662 -1.8658 0 6.76363e-12 -2.08822e-12 0 0 2.0662e-26
6090 203 0.0015 -0.440091 -1.86563 0 4.19534e-12 -3.15596e-13 0 0 8.60742e-27
8006 267 0.0015 -0.253021 -1.86436 0 -1.76885e-12 -3.39813e-12 0 1.00459e-20 1.897e-28
8005 267 0.0015 -0.250695 -1.86524 0 3.96281e-13 -6.62481e-13 0 1.00459e-20 3.1532e-28
10333 345 0.0015 -0.0686412 -1.86599 0 -4.03538e-14 -5.23955e-13 0 0 4.76457e-27
10203 341 0.0015 0.288506 -1.8653 0 1.02568e-13 -1.21362e-12 0 0 5.86709e-27
4532 152 0.0015 0.364868 -1.86469 0 -2.16594e-13 1.51058e-12 0 1.14541e-20 2.93137e-27
10270 343 0.0015 0.424172 -1.86529 0 -6.18951e-13 -3.35033e-12 0 1.24237e-20 6.6961e-27
1483 50 0.0015 0.58358 -1.86557 0 3.04762e-12 3.72237e-12 0 6.81478e-21 1.26088e-26
3526 118 0.0015 0.673499 -1.86561 0 3.58137e-12 3.96007e-12 0 0 1.2243e-26
2652 89 0.0015 -0.611842 -1.86351 0 -9.73228e-13 8.90763e-13 0 0 3.5783e-27
10310 344 0.0015 -0.515959 -1.86217 0 -3.54647e-12 -9.79662e-13 0 1.68424e-20 5.24262e-27
10309 344 0.0015 -0.513134 -1.86307 0 8.29152e-13 3.30275e-12 0 1.68424e-20 9.37872e-28
10308 344 0.0015 -0.51031 -1.86398 0 1.93448e-12 -3.75475e-12 0 1.68424e-20 4.35572e-27
6036 202 0.0015 -0.337434 -1.86244 0 -3.01218e-13 3.61234e-13 0 2.74394e-21 1.23021e-27
8008 267 0.0015 -0.257673 -1.8626 0 -1.93224e-12 -2.2799e-12 0 2.00918e-20 3.4729e-28
8007 267 0.0015 -0.255347 -1.86348 0 2.97505e-12 5.07134e-12 0 2.00918e-20 3.38511e-28
10334 345 0.0015 -0.0693181 -1.86288 0 1.20462e-12 -3.79991e-12 0 1.57149e-20 7.62076e-27
1958 66 0.0015 0.0122775 -1.86393 0 1.36261e-13 -1.76064e-12 0 0 2.333e-27
1484 50 0.0015 0.585807 -1.86266 0 -1.16678e-12 -1.20186e-12 0 0 1.13933e-26
3525 118 0.0015 0.676036 -1.86369 0 -3.58137e-12 -3.96007e-12 0 0 1.2243e-26
2653 89 0.0015 -0.615563 -1.86065 0 -1.2016e-12 3.70046e-13 0 0 1.10359e-27
10312 344 0.0015 -0.521607 -1.86035 0 -3.95468e-12 -1.85878e-14 0 0 6.15869e-27
10311 344 0.0015 -0.518783 -1.86126 0 4.01979e-12 -1.37462e-13 0 0 6.59021e-27
8010 267 0.0015 -0.262324 -1.86085 0 1.95547e-14 4.9371e-13 0 1.00459e-20 1.68826e-29
8009 267 0.0015 -0.259998 -1.86172 0 5.42119e-13 -5.11876e-13 0 2.00918e-20 2.12229e-28
8047 269 0.0015 0.151313 -1.86021 0 -2.87392e-13 2.57713e-12 0 3.6872e-21 6.35725e-27
10271 343 0.0015 0.424893 -1.86133 0 8.40114e-14 4.7248e-13 0 1.24237e-20 3.10802e-27
3524 118 0.0015 0.678573 -1.86178 0 8.4705e-13 1.06826e-12 0 0 6.02836e-27
10314 344 0.0015 -0.527255 -1.85854 0 -2.92633e-12 -9.77818e-14 0 1.68424e-20 8.18873e-27
10313 344 0.0015 -0.524431 -1.85944 0 5.63358e-12 -3.20187e-13 0 1.68424e-20 1.25514e-26
10335 345 0.0015 -0.0699949 -1.85978 0 -1.53327e-12 4.81681e-12 0 1.57149e-20 1.11958e-26
1959 66 0.0015 0.0117974 -1.85915 0 1.14811e-13 -5.09876e-13 0 0 2.03383e-27
4771 160 0.0015 0.0785585 -1.85825 0 1.61785e-14 -5.463e-13 0 0 7.63453e-28
10204 341 0.0015 0.287705 -1.85857 0 8.00302e-14 -5.96305e-13 0 0 4.63475e-28
6005 201 0.0015 0.502997 -1.85945 0 -1.21501e-12 -3.15214e-12 0 0 1.33116e-26
1485 50 0.0015 0.588033 -1.85975 0 -4.53872e-12 -6.13896e-12 0 0 4.17338e-26
3523 118 0.0015 0.681111 -1.85986 0 2.67143e-12 1.67614e-12 0 1.57149e-20 4.80983e-27
2654 89 0.0015 -0.619284 -1.8578 0 8.7315e-13 7.35321e-14 0 0 1.03754e-27
10316 344 0.0015 -0.532903 -1.85672 0 4.69327e-12 -7.97352e-13 0 1.68424e-20 1.01719e-26
10315 344 0.0015 -0.530079 -1.85763 0 -3.35493e-12 1.06001e-12 0 1.68424e-20 8.26152e-27
8013 268 0.0015 -0.167482 -1.85688 0 1.75735e-13 4.41092e-13 0 0 7.10998e-28
10336 345 0.0015 -0.0706718 -1.85667 0 1.35411e-12 -4.47349e-12 0 1.57149e-20 9.60489e-27
4533 152 0.0015 0.36352 -1.85607 0 -9.01015e-14 4.53988e-13 0 1.14541e-20 6.61345e-27
10272 343 0.0015 0.425614 -1.85738 0 -1.04455e-13 -7.19717e-13 0 0 3.94553e-27
1486 50 0.0015 0.59026 -1.85684 0 4.53872e-12 6.13896e-12 0 0 4.17338e-26
3522 118 0.0015 0.683648 -1.85795 0 -4.23757e-12 -2.3411e-12 0 1.57149e-20 1.03227e-26
3521 118 0.0015 0.686185 -1.85603 0 4.87676e-12 2.74902e-12 0 1.57149e-20 1.35992e-26
2655 89 0.0015 -0.623004 -1.85494 0 -2.08028e-13 -2.95436e-13 0 0 1.15193e-28
10318 344 0.0015 -0.538552 -1.85491 0 4.47113e-12 -2.14561e-12 0 5.05273e-20 1.02245e-26
10317 344 0.0015 -0.535727 -1.85581 0 -3.51044e-12 8.83949e-13 0 3.36849e-20 5.47036e-27
6037 202 0.0015 -0.342237 -1.85471 0 3.22443e-13 -4.22135e-13 0 2.74394e-21 1.45275e-27
1960 66 0.0015 0.0113172 -1.85437 0 -2.91871e-13 2.41164e-12 0 0 3.97411e-27
3520 118 0.0015 0.688722 -1.85412 0 -3.53565e-12 -1.73449e-12 0 1.57149e-20 8.02873e-27
2656 89 0.0015 -0.626725 -1.85209 0 -4.63603e-13 3.93217e-13 0 0 9.08095e-28
10320 344 0.0015 -0.5442 -1.85309 0 -2.93714e-13 -2.21985e-13 0 1.68424e-20 3.69332e-29
10319 344 0.0015 -0.541376 -1.854 0 -2.27376e-12 1.60841e-12 0 3.36849e-20 6.81675e-27
10337 345 0.0015 -0.0713486 -1.85356 0 -1.90194e-14 -3.43041e-13 0 1.57149e-20 1.01357e-26
8048 269 0.0015 0.150617 -1.85348 0 9.3636e-14 -7.3413e-13 0 3.6872e-21 3.14855e-27
10273 343 0.0015 0.426335 -1.85342 0 3.67258e-13 2.53527e-12 0 0 3.95268e-27
1487 50 0.0015 0.592486 -1.85392 0 1.16678e-12 1.20186e-12 0 0 1.13933e-26
3519 118 0.0015 0.69126 -1.8522 0 1.83674e-12 4.92991e-14 0 3.14298e-20 1.13308e-27
10338 345 0.0015 -0.0720254 -1.85046 0 -8.71517e-13 2.90082e-12 0 1.57149e-20 5.95713e-27
10205 341 0.0015 0.286904 -1.85184 0 1.68797e-14 2.24309e-14 0 0 4.58663e-29
6006 201 0.0015 0.506013 -1.85168 0 8.23416e-13 2.06634e-12 0 5.99535e-21 6.57226e-27
1488 50 0.0015 0.594712 -1.85101 0 -3.04762e-12 -3.72237e-12 0 6.81478e-21 1.26088e-26
3518 118 0.0015 0.693797 -1.85028 0 -2.92964e-13 1.1002e-12 0 4.71447e-20 8.87054e-28
2657 89 0.0015 -0.630446 -1.84923 0 1.97509e-12 -1.35789e-12 0 0 4.12203e-27
1961 66 0.0015 0.0108371 -1.84959 0 3.04341e-14 -2.10606e-13 0 1.56031e-20 4.06301e-27
4772 160 0.0015 0.0782973 -1.84905 0 -3.85401e-14 1.28356e-12 0 0 2.15398e-27
10274 343 0.0015 0.427056 -1.84946 0 1.11975e-14 -5.373e-14 0 1.24237e-20 1.78283e-27
1489 50 0.0015 0.596939 -1.8481 0 6.42309e-13 1.20381e-12 0 1.36296e-20 3.33769e-27
3517 118 0.0015 0.696334 -1.84837 0 1.20209e-12 1.96207e-13 0 3.14298e-20 4.11817e-27
2658 89 0.0015 -0.634167 -1.84638 0 -1.72488e-12 1.11528e-12 0 0 3.54761e-27
6038 202 0.0015 -0.34704 -1.84697 0 -5.84237e-13 8.56101e-13 0 0 1.58484e-27
10339 345 0.0015 -0.0727023 -1.84735 0 3.37972e-13 -4.29956e-13 0 1.57149e-20 1.91169e-28
8049 269 0.0015 0.149922 -1.84674 0 3.206e-13 -3.20305e-12 0 3.6872e-21 1.46672e-26
6541 219 0.0015 0.213251 -1.84656 0 1.24996e-14 -1.55429e-13 0 0 4.80135e-29
4534 152 0.0015 0.362172 -1.84745 0 2.89508e-13 -1.87505e-12 0 5.72705e-21 5.24762e-27
3516 118 0.0015 0.698871 -1.84645 0 -5.24248e-12 -3.5464e-12 0 1.57149e-20 2.01543e-26
8014 268 0.0015 -0.163039 -1.84452 0 -6.46884e-14 -1.57051e-13 0 0 7.1086e-29
10340 345 0.0015 -0.0733791 -1.84424 0 -1.11527e-12 5.72615e-12 0 0 2.97561e-26
1962 66 0.0015 0.010357 -1.84481 0 2.50077e-13 -2.35212e-12 0 1.56031e-20 3.74158e-27
10206 341 0.0015 0.286103 -1.84511 0 6.01501e-14 -7.89452e-13 0 0 1.51208e-27
10275 343 0.0015 0.427777 -1.84551 0 7.79852e-14 -7.99529e-13 0 2.48474e-20 8.50748e-28
1490 50 0.0015 0.599165 -1.84519 0 2.86385e-12 2.94068e-12 0 2.04443e-20 1.38144e-26
3515 118 0.0015 0.701409 -1.84454 0 3.56207e-12 2.32644e-12 0 0 1.6746e-26
2659 89 0.0015 -0.637888 -1.84352 0 2.96862e-13 -1.36156e-13 0 0 3.07634e-28
6007 201 0.0015 0.509028 -1.84391 0 -8.45056e-13 -2.11763e-12 0 5.99535e-21 6.97606e-27
1491 50 0.0015 0.601391 -1.84228 0 -5.03455e-12 -6.21014e-12 0 2.04443e-20 3.27415e-26
3514 118 0.0015 0.703946 -1.84262 0 2.84924e-12 1.83894e-12 0 1.57149e-20 9.47273e-27
2660 89 0.0015 -0.641609 -1.84066 0 2.31495e-13 -2.60161e-15 0 0 2.95846e-29
10341 345 0.0015 -0.074056 -1.84114 0 2.25471e-12 -1.20277e-11 0 0 6.6236e-26
1963 66 0.0015 0.00987681 -1.84004 0 7.0658e-14 -7.50674e-13 0 1.56031e-20 7.37518e-27
10276 343 0.0015 0.428498 -1.84155 0 -7.79852e-14 7.99529e-13 0 2.48474e-20 8.50748e-28
3513 118 0.0015 0.706483 -1.84071 0 -3.67593e-12 -9.26341e-13 0 1.57149e-20 9.50448e-27
6039 202 0.0015 -0.351842 -1.83924 0 1.93186e-14 1.13883e-14 0 0 4.69446e-28
10342 345 0.0015 -0.0747328 -1.83803 0 -1.5572e-12 7.74319e-12 0 1.57149e-20 3.83887e-26
4773 160 0.0015 0.0780361 -1.83985 0 5.32902e-14 -1.76167e-12 0 2.71488e-21 4.0751e-27
8050 269 0.0015 0.149226 -1.84 0 -6.22937e-13 6.03871e-12 0 7.37441e-21 3.49787e-26
6542 219 0.0015 0.21269 -1.83947 0 3.26756e-14 -4.20742e-13 0 0 7.07572e-28
10207 341 0.0015 0.285302 -1.83839 0 -2.87207e-13 2.68274e-12 0 0 7.63868e-27
4535 152 0.0015 0.360823 -1.83883 0 -1.09776e-13 8.47437e-13 0 0 9.26809e-28
1492 50 0.0015 0.603618 -1.83936 0 2.47311e-12 3.82531e-12 0 1.36296e-20 1.91477e-26
3512 118 0.0015 0.70902 -1.83879 0 1.29735e-12 -1.35429e-12 0 1.57149e-20 4.21753e-29
2661 89 0.0015 -0.64533 -1.83781 0 -6.32747e-13 2.20345e-13 0 0 4.65148e-28
10277 343 0.0015 0.429219 -1.8376 0 -1.11975e-14 5.373e-14 0 1.24237e-20 1.78283e-27
6008 201 0.0015 0.512043 -1.83614 0 1.16494e-12 3.03591e-12 0 5.99535e-21 1.22421e-26
1493 50 0.0015 0.605844 -1.83645 0 1.76044e-12 4.13837e-13 0 6.81478e-21 2.67597e-27
3511 118 0.0015 0.711558 -1.83688 0 -4.51803e-13 5.97033e-13 0 0 6.5224e-34
2662 89 0.0015 -0.649051 -1.83495 0 1.85237e-13 2.98889e-15 0 0 7.28123e-28
10343 345 0.0015 -0.0754097 -1.83493 0 -1.8967e-13 2.2262e-12 0 1.57149e-20 1.39033e-26
1964 66 0.0015 0.00939668 -1.83526 0 -4.29631e-13 4.20803e-12 0 0 1.19729e-26
2663 89 0.0015 -0.652772 -1.8321 0 5.40512e-13 -4.86009e-13 0 5.32605e-21 3.62597e-28
10171 340 0.0015 -0.234195 -1.83312 0 -5.04005e-13 7.46927e-13 0 6.39056e-21 1.7624e-27
8015 268 0.0015 -0.158597 -1.83216 0 -6.90809e-14 -1.9451e-13 0 0 4.92702e-28
8051 269 0.0015 0.14853 -1.83326 0 4.57889e-13 -4.24359e-12 0 7.37441e-21 2.24192e-26
6543 219 0.0015 0.212128 -1.83239 0 -8.23566e-14 1.09514e-12 0 0 1.19409e-27
10278 343 0.0015 0.429939 -1.83364 0 -3.67258e-13 -2.53527e-12 0 0 3.95268e-27
1494 50 0.0015 0.60807 -1.83354 0 -3.95796e-12 -2.44976e-12 0 0 1.02897e-26
6040 202 0.0015 -0.356645 -1.83151 0 2.39196e-13 -3.55538e-13 0 0 2.73097e-28
10344 345 0.0015 -0.0760865 -1.83182 0 8.92229e-13 -5.90978e-12 0 1.57149e-20 1.65809e-26
1965 66 0.0015 0.00891654 -1.83048 0 3.74106e-13 -3.54191e-12 0 0 9.00893e-27
4774 160 0.0015 0.0777749 -1.83066 0 -3.05504e-14 9.37336e-13 0 2.71488e-21 2.70394e-27
10208 341 0.0015 0.284501 -1.83166 0 2.79735e-13 -2.56596e-12 0 3.6872e-21 7.27263e-27
4536 152 0.0015 0.359475 -1.83021 0 2.0282e-13 -1.4256e-12 0 0 3.23632e-27
1495 50 0.0015 0.610297 -1.83063 0 3.8128e-12 3.08386e-12 0 0 1.1826e-26
2664 89 0.0015 -0.656493 -1.82924 0 8.46482e-13 -4.49776e-13 0 5.32605e-21 2.03348e-27
10345 345 0.0015 -0.0767633 -1.82871 0 -1.07258e-12 5.46288e-12 0 0 1.41285e-26
10279 343 0.0015 0.43066 -1.82968 0 1.04455e-13 7.19717e-13 0 0 3.94553e-27
6009 201 0.0015 0.515058 -1.82837 0 -1.09292e-12 -2.91716e-12 0 0 1.12753e-26
2665 89 0.0015 -0.660213 -1.82639 0 -2.03363e-12 1.13202e-12 0 5.32605e-21 3.46547e-27
10172 340 0.0015 -0.238704 -1.82673 0 3.96436e-13 -6.44172e-13 0 1.27811e-20 1.80868e-27
8052 269 0.0015 0.147835 -1.82652 0 -1.39243e-14 -2.80828e-13 0 3.6872e-21 4.53521e-27
1496 50 0.0015 0.612523 -1.82772 0 -1.57802e-12 -1.85439e-12 0 0 4.33751e-27
10346 345 0.0015 -0.0774402 -1.82561 0 1.43408e-12 -6.20703e-12 0 0 1.79354e-26
1966 66 0.0015 0.0084364 -1.8257 0 -1.9428e-13 1.65547e-12 0 0 2.50554e-27
6544 219 0.0015 0.211567 -1.8253 0 -2.31099e-13 2.77336e-12 0 0 2.20808e-26
10209 341 0.0015 0.2837 -1.82493 0 -1.41364e-13 1.42298e-12 0 7.37441e-21 1.93651e-27
10280 343 0.0015 0.431381 -1.82573 0 -8.40114e-14 -4.7248e-13 0 1.24237e-20 3.10802e-27
1497 50 0.0015 0.614749 -1.8248 0 2.4819e-13 7.69429e-13 0 0 2.97129e-28
2666 89 0.0015 -0.663934 -1.82353 0 2.93585e-12 -1.61691e-12 0 5.32605e-21 8.00804e-27
6041 202 0.0015 -0.361448 -1.82377 0 -1.27413e-13 1.45762e-13 0 2.74394e-21 5.0199e-29
10347 345 0.0015 -0.078117 -1.8225 0 -1.09174e-12 4.83867e-12 0 0 1.15051e-26
2667 89 0.0015 -0.667655 -1.82068 0 -2.12728e-12 7.84426e-13 0 5.32605e-21 6.48397e-27
10173 340 0.0015 -0.243212 -1.82034 0 -1.98482e-13 3.28993e-13 0 1.27811e-20 6.54487e-28
1967 66 0.0015 0.00795626 -1.82092 0 -7.77422e-14 8.67098e-13 0 0 2.10392e-27
4775 160 0.0015 0.0775136 -1.82146 0 -4.77137e-14 1.7995e-12 0 5.42976e-21 7.52003e-27
4537 152 0.0015 0.358127 -1.82159 0 -4.75564e-13 3.05438e-12 0 0 1.25113e-26
10281 343 0.0015 0.432102 -1.82177 0 6.18951e-13 3.35033e-12 0 1.24237e-20 6.6961e-27
6010 201 0.0015 0.518074 -1.8206 0 1.4831e-12 3.8996e-12 0 0 2.19676e-26
1498 50 0.0015 0.616976 -1.82189 0 7.90864e-13 1.60331e-12 0 0 4.65003e-27
8016 268 0.0015 -0.154154 -1.81981 0 2.52966e-13 6.97235e-13 0 0 1.00946e-27
10348 345 0.0015 -0.0787939 -1.81939 0 9.10784e-13 -4.17756e-12 0 0 8.19202e-27
8053 269 0.0015 0.147139 -1.81978 0 -2.8489e-13 3.22295e-12 0 0 1.042e-26
6545 219 0.0015 0.211005 -1.81821 0 3.65136e-13 -4.46057e-12 0 0 2.42597e-26
10210 341 0.0015 0.282899 -1.8182 0 1.40681e-13 -1.39011e-12 0 7.37441e-21 1.8432e-27
1499 50 0.0015 0.619202 -1.81898 0 -2.89552e-13 -1.76783e-12 0 0 4.80588e-27
2668 89 0.0015 -0.671376 -1.81782 0 -2.93059e-13 1.0939e-12 0 5.32605e-21 9.1098e-28
6042 202 0.0015 -0.366251 -1.81604 0 6.05624e-13 -9.58492e-13 0 2.74394e-21 2.88794e-27
10349 345 0.0015 -0.0794707 -1.81629 0 -4.28798e-13 1.81648e-12 0 0 5.32985e-27
1968 66 0.0015 0.00747613 -1.81614 0 1.57435e-13 -1.47738e-12 0 0 2.05283e-27
10282 343 0.0015 0.432823 -1.81781 0 -4.65938e-13 -2.7006e-12 0 1.24237e-20 5.11533e-27
1500 50 0.0015 0.621428 -1.81607 0 -6.38587e-13 -1.75521e-13 0 0 2.83102e-28
2669 89 0.0015 -0.675097 -1.81497 0 -4.38612e-13 -1.98119e-13 0 0 2.37227e-27
5941 199 0.0015 0.740778 -1.81551 0 -1.08504e-13 -4.52174e-13 0 7.80155e-21 5.7696e-28
2670 89 0.0015 -0.678818 -1.81211 0 9.1116e-13 -5.55507e-13 0 0 1.46675e-27
10174 340 0.0015 -0.24772 -1.81396 0 5.56628e-13 -7.44743e-13 0 6.39056e-21 9.56027e-28
10350 345 0.0015 -0.0801475 -1.81318 0 -9.17708e-14 5.24706e-13 0 0 2.50144e-28
4776 160 0.0015 0.0772524 -1.81226 0 8.37416e-14 -3.01813e-12 0 5.42976e-21 1.18614e-26
8054 269 0.0015 0.146443 -1.81304 0 2.24964e-13 -2.43068e-12 0 0 7.93667e-27
4538 152 0.0015 0.356779 -1.81297 0 5.76592e-13 -3.58853e-12 0 5.72705e-21 1.61407e-26
10283 343 0.0015 0.433544 -1.81386 0 2.4743e-14 8.19677e-13 0 0 5.9989e-28
6011 201 0.0015 0.521089 -1.81283 0 -1.75416e-12 -4.50242e-12 0 0 2.7433e-26
1969 66 0.0015 0.00699599 -1.81136 0 -2.16153e-13 2.19693e-12 0 0 5.07689e-27
6546 219 0.0015 0.210443 -1.81113 0 -8.93256e-14 1.099e-12 0 3.51396e-21 2.72302e-27
10211 341 0.0015 0.282098 -1.81148 0 -1.97466e-13 1.76476e-12 0 7.37441e-21 3.04793e-27
6043 202 0.0015 -0.371054 -1.8083 0 -1.17912e-12 1.922e-12 0 2.74394e-21 6.44731e-27
10284 343 0.0015 0.434265 -1.8099 0 5.22989e-13 1.85022e-12 0 0 4.46117e-27
10175 340 0.0015 -0.252228 -1.80757 0 -4.75879e-13 5.76854e-13 0 0 6.0703e-28
8017 268 0.0015 -0.149712 -1.80745 0 -2.65373e-13 -7.21331e-13 0 0 1.07908e-27
1970 66 0.0015 0.00651585 -1.80658 0 2.87095e-13 -2.93663e-12 0 0 6.36177e-27
8055 269 0.0015 0.145748 -1.8063 0 5.23108e-14 -5.37531e-13 0 0 2.13782e-27
5942 199 0.0015 0.743061 -1.80618 0 7.62119e-14 3.59338e-13 0 1.04021e-20 6.02505e-28
6547 219 0.0015 0.209882 -1.80404 0 7.07932e-14 -1.02721e-12 0 7.02791e-21 2.39548e-27