ITEM: TIMESTEP
86860
ITEM: NUMBER OF ATOMS
10500
ITEM: BOX BOUNDS pp pp pp
-1.0249999999999999e+00 1.0249999999999999e+00
-2.0000000000000000e+00 2.0000000000000000e+00
-5.0000000000000003e-02 5.0000000000000003e-02
ITEM: ATOMS id type radius x y z fx fy fz c_bendingE c_stretchingE
10321 345 0.0015 -0.0605191 -1.90326 0 -1.53588e-12 5.91482e-12 0 1.57149e-20 3.29271e-26
6031 202 0.0015 -0.31342 -1.90111 0 9.03762e-13 -1.44781e-12 0 0 7.36623e-27
10322 345 0.0015 -0.061196 -1.90016 0 3.23518e-12 -1.18725e-11 0 3.14298e-20 6.66856e-26
8041 269 0.0015 0.155487 -1.90065 0 4.74445e-13 -4.51328e-12 0 0 3.87569e-26
10261 343 0.0015 0.417684 -1.90089 0 8.68519e-13 4.40825e-12 0 1.24237e-20 2.2545e-26
1471 50 0.0015 0.556864 -1.90052 0 2.60507e-12 3.86984e-12 0 6.81478e-21 2.2078e-26
10323 345 0.0015 -0.0618728 -1.89705 0 -4.27592e-12 1.65743e-11 0 3.14298e-20 1.391e-25
1951 66 0.0015 0.0156385 -1.89738 0 -4.69746e-13 4.8623e-12 0 0 3.18356e-26
10262 343 0.0015 0.418405 -1.89694 0 -2.99721e-12 -1.49081e-11 0 2.48474e-20 1.50707e-25
1472 50 0.0015 0.559091 -1.8976 0 -1.96025e-12 -3.67912e-12 0 1.36296e-20 2.23784e-26
2641 89 0.0015 -0.570912 -1.89491 0 8.22444e-13 -6.4844e-13 0 0 1.4288e-27
1473 50 0.0015 0.561317 -1.89469 0 -1.30382e-12 -7.36265e-13 0 1.36296e-20 1.00801e-27
2642 89 0.0015 -0.574633 -1.89206 0 -4.16249e-13 3.18747e-13 0 0 1.7851e-27
6032 202 0.0015 -0.318223 -1.89337 0 -1.38434e-12 2.19649e-12 0 0 9.36728e-27
10324 345 0.0015 -0.0625496 -1.89394 0 4.19027e-12 -1.67905e-11 0 1.57149e-20 1.41241e-25
1952 66 0.0015 0.0151583 -1.8926 0 4.91951e-13 -5.39831e-12 0 0 3.22183e-26
8042 269 0.0015 0.154791 -1.89391 0 -1.05072e-12 9.90279e-12 0 0 9.40438e-26
10263 343 0.0015 0.419126 -1.89298 0 3.79568e-12 1.78177e-11 0 2.48474e-20 1.90964e-25
3540 118 0.0015 0.637977 -1.89243 0 3.06181e-12 2.14385e-12 0 1.57149e-20 1.23218e-26
6061 203 0.0015 -0.387409 -1.89062 0 2.36555e-13 -1.31055e-12 0 0 3.35904e-28
10325 345 0.0015 -0.0632265 -1.89084 0 -1.57405e-12 5.12856e-12 0 0 3.68353e-26
10231 342 0.0015 0.215 -1.89 0 2.2757e-12 0 0 0 9.92109e-28
10232 342 0.0015 0.21569 -1.89 0 -3.33211e-12 0 0 0 1.20599e-27
10233 342 0.0015 0.216379 -1.89 0 2.20948e-12 0 0 0 4.68493e-28
10234 342 0.0015 0.217069 -1.89 0 -3.76699e-12 0 0 0 1.56375e-27
10235 342 0.0015 0.217759 -1.89 0 8.11307e-12 0 0 0 7.10284e-27
10236 342 0.0015 0.218448 -1.89 0 -9.77924e-12 0 0 0 9.30347e-27
10237 342 0.0015 0.219138 -1.89 0 9.20037e-12 0 0 0 8.1467e-27
10238 342 0.0015 0.219828 -1.89 0 -1.28227e-11 0 0 0 1.66002e-26
10239 342 0.0015 0.220517 -1.89 0 1.74585e-11 0 0 0 2.94574e-26
10240 342 0.0015 0.221207 -1.89 0 -1.89794e-11 0 0 0 3.45068e-26
10241 342 0.0015 0.221897 -1.89 0 1.86901e-11 0 0 0 3.34619e-26
10242 342 0.0015 0.222586 -1.89 0 -2.05738e-11 0 0 0 4.09421e-26
10243 342 0.0015 0.223276 -1.89 0 2.26019e-11 0 0 0 4.89317e-26
10244 342 0.0015 0.223966 -1.89 0 -2.21313e-11 0 0 0 4.69342e-26
10245 342 0.0015 0.224655 -1.89 0 2.14433e-11 0 0 0 4.40468e-26
10246 342 0.0015 0.225345 -1.89 0 -2.14433e-11 0 0 0 4.40468e-26
10247 342 0.0015 0.226034 -1.89 0 2.21313e-11 0 0 0 4.69342e-26
10248 342 0.0015 0.226724 -1.89 0 -2.26019e-11 0 0 0 4.89317e-26
10249 342 0.0015 0.227414 -1.89 0 2.05738e-11 0 0 0 4.09421e-26
10250 342 0.0015 0.228103 -1.89 0 -1.86901e-11 0 0 0 3.34619e-26
10251 342 0.0015 0.228793 -1.89 0 1.89794e-11 0 0 0 3.45068e-26
10252 342 0.0015 0.229483 -1.89 0 -1.74585e-11 0 0 0 2.94574e-26
10253 342 0.0015 0.230172 -1.89 0 1.28227e-11 0 0 0 1.66002e-26
10254 342 0.0015 0.230862 -1.89 0 -9.20037e-12 0 0 0 8.1467e-27
10255 342 0.0015 0.231552 -1.89 0 9.77924e-12 0 0 0 9.30347e-27
10256 342 0.0015 0.232241 -1.89 0 -8.11307e-12 0 0 0 7.10284e-27
10257 342 0.0015 0.232931 -1.89 0 3.76699e-12 0 0 0 1.56375e-27
10258 342 0.0015 0.233621 -1.89 0 -2.20948e-12 0 0 0 4.68493e-28
10259 342 0.0015 0.23431 -1.89 0 3.33211e-12 0 0 0 1.20599e-27
10260 342 0.0015 0.235 -1.89 0 -2.2757e-12 0 0 0 9.92109e-28
6001 201 0.0015 0.490936 -1.89052 0 4.80208e-13 1.2783e-12 0 0 4.3157e-27
1474 50 0.0015 0.563543 -1.89178 0 -4.85253e-13 -9.85591e-13 0 1.36296e-20 4.42733e-27
3539 118 0.0015 0.640514 -1.89051 0 -6.80445e-12 -3.95563e-12 0 1.57149e-20 2.70123e-26
2643 89 0.0015 -0.578354 -1.8892 0 -4.22133e-12 3.43111e-12 0 0 3.1826e-26
6063 203 0.0015 -0.391043 -1.8889 0 -3.03075e-12 3.83052e-12 0 0 1.13036e-26
6064 203 0.0015 -0.392859 -1.88804 0 -2.51462e-12 7.00828e-12 0 0 1.48725e-26
6062 203 0.0015 -0.389226 -1.88976 0 3.35362e-12 -1.61388e-12 0 0 1.16318e-26
10264 343 0.0015 0.419847 -1.88903 0 -1.8437e-12 -7.05946e-12 0 1.24237e-20 6.28569e-26
1475 50 0.0015 0.56577 -1.88887 0 3.26393e-12 4.16645e-12 0 6.81478e-21 1.53589e-26
3538 118 0.0015 0.643052 -1.8886 0 2.06156e-12 -7.33818e-13 0 3.14298e-20 2.19922e-26
2644 89 0.0015 -0.582074 -1.88635 0 4.5642e-12 -3.93762e-12 0 0 3.30557e-26
6066 203 0.0015 -0.396492 -1.88631 0 1.02071e-11 1.40713e-11 0 2.48474e-20 1.08837e-26
6065 203 0.0015 -0.394676 -1.88717 0 -1.04059e-12 -1.67668e-11 0 0 1.55258e-26
7981 267 0.0015 -0.194876 -1.88635 0 -1.59254e-12 -7.58232e-13 0 1.00459e-20 1.03036e-27
10326 345 0.0015 -0.0639033 -1.88773 0 -7.88329e-14 6.2208e-13 0 0 1.08128e-27
1953 66 0.0015 0.0146782 -1.88782 0 -1.04848e-13 1.50487e-12 0 5.20104e-21 1.64381e-27
8043 269 0.0015 0.154095 -1.88717 0 7.75675e-13 -6.99759e-12 0 0 6.02261e-26
3537 118 0.0015 0.645589 -1.88668 0 6.43944e-12 6.74727e-12 0 1.57149e-20 4.26785e-26
6068 203 0.0015 -0.400126 -1.88459 0 1.54771e-11 6.27938e-12 0 4.96948e-20 3.65399e-26
6067 203 0.0015 -0.398309 -1.88545 0 -1.62652e-11 -8.99744e-12 0 4.96948e-20 3.426e-26
6033 202 0.0015 -0.323025 -1.88564 0 -6.80463e-13 1.16538e-12 0 0 1.46731e-26
7983 267 0.0015 -0.199527 -1.8846 0 -5.95501e-12 2.4141e-12 0 1.00459e-20 1.50825e-26
7982 267 0.0015 -0.197202 -1.88548 0 4.18627e-12 7.28615e-13 0 1.00459e-20 5.13065e-27
10327 345 0.0015 -0.0645802 -1.88463 0 2.7066e-13 9.70797e-13 0 1.57149e-20 3.53379e-28
10265 343 0.0015 0.420568 -1.88507 0 -1.14275e-13 -1.87402e-12 0 0 3.06582e-27
1476 50 0.0015 0.567996 -1.88596 0 -2.58159e-12 -3.42642e-12 0 1.36296e-20 1.24806e-26
3536 118 0.0015 0.648126 -1.88476 0 -7.08268e-12 -6.81992e-12 0 1.57149e-20 4.57822e-26
2645 89 0.0015 -0.585795 -1.88349 0 8.43548e-13 -1.92802e-13 0 0 6.23935e-27
6071 203 0.0015 -0.405575 -1.882 0 -7.07347e-12 2.99283e-12 0 0 1.66399e-26
6070 203 0.0015 -0.403759 -1.88287 0 8.55641e-12 1.12536e-12 0 0 1.47183e-26
6069 203 0.0015 -0.401942 -1.88373 0 -1.10138e-11 -3.24091e-12 0 2.48474e-20 2.06963e-26
7985 267 0.0015 -0.204179 -1.88284 0 3.1997e-12 1.93486e-12 0 0 1.8489e-27
7984 267 0.0015 -0.201853 -1.88372 0 2.03743e-12 -2.84587e-12 0 0 1.17805e-26
1954 66 0.0015 0.0141981 -1.88304 0 3.37159e-13 -3.53288e-12 0 1.04021e-20 1.01185e-26
6002 201 0.0015 0.493952 -1.88275 0 7.03058e-14 1.31875e-13 0 0 9.62036e-27
1477 50 0.0015 0.570222 -1.88304 0 -1.23943e-12 -7.08156e-13 0 1.36296e-20 5.87939e-27
3535 118 0.0015 0.650663 -1.88285 0 1.57838e-12 3.53987e-12 0 0 1.04067e-26
2646 89 0.0015 -0.589516 -1.88064 0 -3.89006e-12 2.79629e-12 0 0 1.55991e-26
6073 203 0.0015 -0.409209 -1.88028 0 2.35417e-12 1.11196e-11 0 2.48474e-20 2.71607e-27
6072 203 0.0015 -0.407392 -1.88114 0 2.39105e-12 -9.90483e-12 0 0 1.26978e-26
7988 267 0.0015 -0.211156 -1.8802 0 2.92248e-12 -9.67156e-12 0 0 1.73141e-26
7987 267 0.0015 -0.208831 -1.88108 0 -5.45327e-13 1.10994e-11 0 0 7.89418e-27
7986 267 0.0015 -0.206505 -1.88196 0 -7.05029e-13 -7.16693e-12 0 0 7.72789e-27
8011 268 0.0015 -0.176367 -1.88159 0 -5.14884e-13 -1.44117e-12 0 0 8.54243e-27
10328 345 0.0015 -0.065257 -1.88152 0 -1.1381e-12 2.35203e-12 0 3.14298e-20 8.29585e-27
8044 269 0.0015 0.1534 -1.88043 0 -2.22058e-13 1.39806e-12 0 0 5.01954e-27
10266 343 0.0015 0.421289 -1.88111 0 8.10077e-13 4.20797e-12 0 0 1.08156e-26
1478 50 0.0015 0.572449 -1.88013 0 4.73268e-12 4.31579e-12 0 1.36296e-20 2.19763e-26
3534 118 0.0015 0.653201 -1.88093 0 1.49038e-12 -1.58127e-12 0 0 3.55761e-29
10292 344 0.0015 -0.465124 -1.8785 0 8.59141e-12 -2.09893e-12 0 1.68424e-20 3.71972e-26
10291 344 0.0015 -0.4623 -1.87941 0 -2.62391e-12 4.81616e-13 0 0 5.76651e-27
6074 203 0.0015 -0.411025 -1.87942 0 -7.13356e-12 -2.53563e-12 0 2.48474e-20 1.923e-26
6075 203 0.0015 -0.412842 -1.87856 0 1.0872e-11 -5.88946e-12 0 2.48474e-20 4.26919e-26
7990 267 0.0015 -0.215808 -1.87844 0 6.00811e-12 -6.97908e-12 0 1.00459e-20 3.55228e-26
7989 267 0.0015 -0.213482 -1.87932 0 -9.71686e-12 8.03484e-12 0 0 5.09497e-26
10329 345 0.0015 -0.0659339 -1.87841 0 1.13468e-12 -4.08316e-12 0 4.71447e-20 9.36947e-27
1955 66 0.0015 0.0137179 -1.87827 0 -2.68953e-13 2.7429e-12 0 1.04021e-20 8.90029e-27
10201 341 0.0015 0.290108 -1.87875 0 1.03916e-13 -1.05124e-12 0 0 2.09917e-27
3533 118 0.0015 0.655738 -1.87902 0 -2.62822e-12 -2.50642e-13 0 0 3.75226e-27
2647 89 0.0015 -0.593237 -1.87778 0 4.11204e-12 -3.57572e-12 0 0 1.93544e-26
10294 344 0.0015 -0.470773 -1.87669 0 2.282e-12 -9.55237e-13 0 5.05273e-20 1.97105e-26
10293 344 0.0015 -0.467948 -1.87759 0 -1.0209e-11 3.00861e-12 0 3.36849e-20 4.78487e-26
6077 203 0.0015 -0.416475 -1.87683 0 -4.86679e-12 9.62796e-12 0 0 2.09702e-26
6076 203 0.0015 -0.414658 -1.87769 0 -2.85334e-12 1.02581e-12 0 0 3.03678e-26
6034 202 0.0015 -0.327828 -1.87791 0 2.31582e-12 -3.83766e-12 0 0 2.53984e-26
7992 267 0.0015 -0.22046 -1.87668 0 -6.60766e-12 -6.17515e-12 0 1.00459e-20 1.36313e-26
7991 267 0.0015 -0.218134 -1.87756 0 5.99174e-12 6.12712e-12 0 1.00459e-20 1.41762e-26
10267 343 0.0015 0.42201 -1.87716 0 -1.82889e-12 -1.02818e-11 0 0 7.57616e-26
1479 50 0.0015 0.574675 -1.87722 0 -6.77003e-12 -6.25813e-12 0 6.81478e-21 4.24427e-26
3532 118 0.0015 0.658275 -1.8771 0 5.92609e-12 4.33074e-12 0 0 2.84035e-26
2648 89 0.0015 -0.596958 -1.87493 0 -4.14359e-12 4.26294e-12 0 0 2.29593e-26
10296 344 0.0015 -0.476421 -1.87487 0 2.15827e-12 -2.24868e-13 0 3.36849e-20 9.04984e-27
10295 344 0.0015 -0.473597 -1.87578 0 2.95612e-12 -6.92317e-13 0 5.05273e-20 4.16208e-27
6080 203 0.0015 -0.421925 -1.87425 0 2.50168e-11 -5.45346e-12 0 0 1.772e-25
6079 203 0.0015 -0.420108 -1.87511 0 -1.97349e-11 9.87485e-12 0 0 1.47442e-25
6078 203 0.0015 -0.418291 -1.87597 0 8.06045e-12 -1.30207e-11 0 0 4.83676e-26
7995 267 0.0015 -0.227437 -1.87404 0 -1.91448e-12 2.40353e-12 0 2.00918e-20 9.71935e-27
7994 267 0.0015 -0.225111 -1.87492 0 1.03737e-11 -5.26834e-12 0 2.00918e-20 5.26638e-26
7993 267 0.0015 -0.222785 -1.8758 0 -6.41469e-12 6.70467e-12 0 0 4.37331e-26
10330 345 0.0015 -0.0666107 -1.87531 0 6.73627e-13 -1.76944e-12 0 3.14298e-20 9.64409e-27
6003 201 0.0015 0.496967 -1.87498 0 -9.2262e-13 -2.49408e-12 0 0 8.33995e-27
1480 50 0.0015 0.576901 -1.87431 0 6.53317e-12 5.13236e-12 0 0 3.49171e-26
3531 118 0.0015 0.660812 -1.87519 0 -6.4408e-12 -6.41339e-12 0 0 3.689e-26
2649 89 0.0015 -0.600679 -1.87207 0 5.46712e-12 -5.38752e-12 0 0 3.83621e-26
10299 344 0.0015 -0.484893 -1.87215 0 1.07105e-11 -1.81678e-12 0 3.36849e-20 5.19019e-26
10298 344 0.0015 -0.482069 -1.87306 0 -3.02636e-12 6.53215e-13 0 1.68424e-20 1.20834e-26
10297 344 0.0015 -0.479245 -1.87396 0 -3.88479e-12 4.53148e-13 0 3.36849e-20 8.56847e-27
6082 203 0.0015 -0.425558 -1.87252 0 4.591e-12 -1.86144e-12 0 0 7.76318e-27
6081 203 0.0015 -0.423741 -1.87338 0 -1.41546e-11 3.02501e-12 0 0 7.03329e-26
7997 267 0.0015 -0.232089 -1.87228 0 -2.32575e-12 5.83556e-13 0 0 2.19289e-27
7996 267 0.0015 -0.229763 -1.87316 0 -3.81496e-13 -4.42453e-13 0 2.00918e-20 1.08316e-27
10331 345 0.0015 -0.0672875 -1.8722 0 -5.28387e-13 -5.48733e-13 0 1.57149e-20 1.91853e-26
1956 66 0.0015 0.0132378 -1.87349 0 2.44638e-13 -2.44805e-12 0 5.20104e-21 6.9833e-27
8045 269 0.0015 0.152704 -1.87369 0 3.20656e-13 -2.40331e-12 0 3.6872e-21 1.30984e-26
10202 341 0.0015 0.289307 -1.87202 0 -2.29649e-13 2.54025e-12 0 0 6.29641e-27
4531 152 0.0015 0.366216 -1.8733 0 3.99662e-13 -2.58277e-12 0 0 1.65514e-26
10268 343 0.0015 0.422731 -1.8732 0 2.35303e-12 1.51936e-11 0 0 1.31961e-25
3530 118 0.0015 0.66335 -1.87327 0 -1.16767e-12 8.99151e-13 0 0 2.71055e-26
10301 344 0.0015 -0.490541 -1.87033 0 6.50299e-12 -9.26507e-14 0 1.68424e-20 1.60105e-26
10300 344 0.0015 -0.487717 -1.87124 0 -1.04056e-11 1.30563e-12 0 1.68424e-20 4.92935e-26
6084 203 0.0015 -0.429191 -1.8708 0 -5.05824e-12 1.24718e-12 0 0 1.12209e-26
6083 203 0.0015 -0.427374 -1.87166 0 2.55509e-12 -1.31489e-12 0 0 1.23259e-26
6035 202 0.0015 -0.332631 -1.87017 0 -4.04804e-13 7.74141e-13 0 2.74394e-21 1.74876e-26
7999 267 0.0015 -0.23674 -1.87052 0 8.04575e-12 8.40318e-12 0 0 7.17316e-27
7998 267 0.0015 -0.234415 -1.8714 0 -2.05621e-12 -3.81976e-12 0 0 5.03802e-27
1481 50 0.0015 0.579128 -1.8714 0 -2.5317e-12 4.76606e-13 0 0 1.30169e-26
3529 118 0.0015 0.665887 -1.87136 0 4.47105e-12 3.59936e-12 0 0 1.72452e-26
2650 89 0.0015 -0.6044 -1.86922 0 -4.07533e-12 3.97024e-12 0 0 2.62746e-26
10303 344 0.0015 -0.49619 -1.86852 0 2.81485e-12 9.631e-13 0 1.68424e-20 5.553e-27
10302 344 0.0015 -0.493366 -1.86943 0 -5.8731e-12 -3.42284e-13 0 1.68424e-20 1.24428e-26
6087 203 0.0015 -0.434641 -1.86821 0 3.83233e-12 1.19185e-11 0 0 8.99036e-28
6085 203 0.0015 -0.431008 -1.86994 0 -4.28715e-12 5.23834e-12 0 0 2.60175e-26
6086 203 0.0015 -0.432824 -1.86908 0 4.59761e-12 -8.90703e-12 0 0 2.65419e-26
8001 267 0.0015 -0.241392 -1.86876 0 7.70638e-13 3.10332e-12 0 0 1.20002e-27
8000 267 0.0015 -0.239066 -1.86964 0 -4.85455e-12 -9.22462e-12 0 0 4.74589e-27
8012 268 0.0015 -0.171924 -1.86923 0 3.36728e-13 9.49648e-13 0 0 9.53938e-27
10332 345 0.0015 -0.0679644 -1.86909 0 -1.81238e-12 1.29077e-11 0 1.57149e-20 9.04696e-26
1957 66 0.0015 0.0127576 -1.86871 0 -2.14237e-13 2.13568e-12 0 0 6.96445e-27
10269 343 0.0015 0.423451 -1.86924 0 -1.73375e-12 -1.35434e-11 0 0 1.05097e-25
1482 50 0.0015 0.581354 -1.86848 0 -3.42088e-13 -2.40094e-12 0 0 3.6598e-27
3528 118 0.0015 0.668424 -1.86944 0 2.77178e-12 -3.30826e-13 0 1.57149e-20 1.4059e-26
2651 89 0.0015 -0.608121 -1.86636 0 -3.47541e-14 -4.45271e-13 0 0 4.13083e-27
10305 344 0.0015 -0.501838 -1.8667 0 -6.37467e-12 2.36316e-12 0 0 3.36871e-26
10304 344 0.0015 -0.499014 -1.86761 0 4.80463e-13 -5.11773e-13 0 1.68424e-20 1.73195e-28
6089 203 0.0015 -0.438274 -1.86649 0 1.42579e-12 1.58205e-11 0 0 8.43819e-27
6088 203 0.0015 -0.436457 -1.86735 0 -4.76188e-12 -1.77683e-11 0 0 4.65033e-27
8004 267 0.0015 -0.248369 -1.86612 0 -4.44422e-13 4.26582e-12 0 0 3.82908e-27
8003 267 0.0015 -0.246044 -1.867 0 -5.71918e-13 -2.42807e-12 0 0 4.66651e-28
8002 267 0.0015 -0.243718 -1.86788 0 -7.0763e-13 2.21224e-12 0 0 7.20539e-28
8046 269 0.0015 0.152008 -1.86695 0 -2.6776e-13 2.27544e-12 0 7.37441e-21 1.32346e-26
6004 201 0.0015 0.499982 -1.86721 0 -1.5109e-14 1.80913e-13 0 0 5.26714e-27
3527 118 0.0015 0.670962 -1.86752 0 -1.04352e-11 -3.54917e-12 0 1.57149e-20 5.28446e-26
10307 344 0.0015 -0.507486 -1.86489 0 -9.93923e-12 8.80569e-12 0 1.68424e-20 7.09949e-26
10306 344 0.0015 -0.504662 -1.8658 0 1.32601e-11 -7.5569e-12 0 1.68424e-20 9.38572e-26
6090 203 0.0015 -0.440091 -1.86563 0 2.61888e-13 -5.62024e-12 0 0 3.9094e-27
8006 267 0.0015 -0.253021 -1.86436 0 -7.69164e-13 1.66557e-12 0 1.00459e-20 1.61265e-27
8005 267 0.0015 -0.250695 -1.86524 0 2.11967e-12 -5.23654e-12 0 1.00459e-20 5.30415e-27
10333 345 0.0015 -0.0686412 -1.86599 0 2.49616e-12 -1.66906e-11 0 1.57149e-20 1.27257e-25
10203 341 0.0015 0.288506 -1.8653 0 1.90813e-13 -2.29933e-12 0 0 5.43909e-27
4532 152 0.0015 0.364868 -1.86469 0 -7.99315e-13 5.10938e-12 0 0 3.24076e-26
10270 343 0.0015 0.424172 -1.86529 0 8.48513e-13 8.1479e-12 0 0 4.60323e-26
1483 50 0.0015 0.58358 -1.86557 0 -1.12306e-12 -2.47228e-12 0 0 8.50039e-27
3526 118 0.0015 0.673499 -1.86561 0 1.77365e-11 7.01273e-12 0 1.57149e-20 1.59064e-25
2652 89 0.0015 -0.611842 -1.86351 0 1.37908e-12 -7.49802e-13 0 5.32605e-21 1.89668e-27
10310 344 0.0015 -0.515959 -1.86217 0 6.91569e-12 -4.33305e-13 0 3.36849e-20 2.3024e-26
10309 344 0.0015 -0.513134 -1.86307 0 -3.62635e-13 5.7177e-13 0 1.68424e-20 3.61141e-27
10308 344 0.0015 -0.51031 -1.86398 0 1.14548e-12 -4.29339e-12 0 1.68424e-20 1.18665e-26
6036 202 0.0015 -0.337434 -1.86244 0 -1.7346e-12 2.70209e-12 0 5.48788e-21 1.33082e-26
8008 267 0.0015 -0.257673 -1.8626 0 -4.25262e-14 2.75978e-13 0 0 1.04246e-28
8007 267 0.0015 -0.255347 -1.86348 0 -2.44657e-13 4.91683e-13 0 1.00459e-20 5.60507e-29
10334 345 0.0015 -0.0693181 -1.86288 0 -2.79613e-13 3.99566e-12 0 1.57149e-20 5.76929e-26
1958 66 0.0015 0.0122775 -1.86393 0 -1.44469e-13 1.10003e-12 0 0 1.29118e-27
1484 50 0.0015 0.585807 -1.86266 0 1.70887e-12 3.96938e-12 0 6.81478e-21 1.01959e-26
3525 118 0.0015 0.676036 -1.86369 0 -1.77365e-11 -7.01273e-12 0 1.57149e-20 1.59064e-25
2653 89 0.0015 -0.615563 -1.86065 0 1.66978e-12 -1.6401e-12 0 5.32605e-21 1.0026e-26
10312 344 0.0015 -0.521607 -1.86035 0 9.54311e-12 -3.90421e-13 0 3.36849e-20 3.81754e-26
10311 344 0.0015 -0.518783 -1.86126 0 -1.13681e-11 6.0998e-13 0 3.36849e-20 5.03597e-26
8010 267 0.0015 -0.262324 -1.86085 0 -3.42814e-13 2.27275e-13 0 0 1.11097e-28
8009 267 0.0015 -0.259998 -1.86172 0 5.37275e-13 -6.59137e-13 0 0 1.88453e-28
8047 269 0.0015 0.151313 -1.86021 0 -6.66928e-14 7.16635e-13 0 7.37441e-21 4.88974e-28
10271 343 0.0015 0.424893 -1.86133 0 -2.40867e-13 -2.57393e-12 0 0 5.18846e-27
3524 118 0.0015 0.678573 -1.86178 0 1.04352e-11 3.54917e-12 0 1.57149e-20 5.28446e-26
10314 344 0.0015 -0.527255 -1.85854 0 -4.72479e-12 -3.49575e-12 0 1.68424e-20 4.91289e-27
10313 344 0.0015 -0.524431 -1.85944 0 -9.00375e-13 1.36747e-12 0 1.68424e-20 1.14442e-26
10335 345 0.0015 -0.0699949 -1.85978 0 -2.73061e-12 1.34508e-11 0 0 1.04588e-25
1959 66 0.0015 0.0117974 -1.85915 0 -3.45622e-14 1.13998e-12 0 0 7.21958e-27
4771 160 0.0015 0.0785585 -1.85825 0 5.63907e-14 -1.93743e-12 0 2.71488e-21 9.60199e-27
10204 341 0.0015 0.287705 -1.85857 0 7.94433e-14 -7.46421e-13 0 0 5.83872e-27
6005 201 0.0015 0.502997 -1.85945 0 -6.70013e-13 -1.74967e-12 0 0 2.11057e-26
1485 50 0.0015 0.588033 -1.85975 0 -5.96545e-13 -1.36373e-12 0 1.36296e-20 1.7695e-27
3523 118 0.0015 0.681111 -1.85986 0 -2.77178e-12 3.30826e-13 0 1.57149e-20 1.4059e-26
2654 89 0.0015 -0.619284 -1.8578 0 -3.76114e-12 3.18355e-12 0 5.32605e-21 1.59869e-26
10316 344 0.0015 -0.532903 -1.85672 0 1.02547e-12 -9.04173e-13 0 0 7.38572e-28
10315 344 0.0015 -0.530079 -1.85763 0 2.38131e-12 3.75216e-12 0 0 2.00376e-27
8013 268 0.0015 -0.167482 -1.85688 0 7.19043e-13 2.01406e-12 0 0 1.0519e-26
10336 345 0.0015 -0.0706718 -1.85667 0 2.05886e-12 -1.14717e-11 0 1.57149e-20 9.60025e-26
4533 152 0.0015 0.36352 -1.85607 0 6.41699e-13 -3.95821e-12 0 0 2.09636e-26
10272 343 0.0015 0.425614 -1.85738 0 7.64809e-13 4.37212e-12 0 0 1.78169e-26
1486 50 0.0015 0.59026 -1.85684 0 5.96545e-13 1.36373e-12 0 1.36296e-20 1.7695e-27
3522 118 0.0015 0.683648 -1.85795 0 -4.47105e-12 -3.59936e-12 0 0 1.72452e-26
3521 118 0.0015 0.686185 -1.85603 0 1.16767e-12 -8.99151e-13 0 0 2.71055e-26
2655 89 0.0015 -0.623004 -1.85494 0 7.02949e-13 -6.13339e-13 0 0 8.22093e-27
10318 344 0.0015 -0.538552 -1.85491 0 5.41322e-12 3.87182e-12 0 3.36849e-20 6.582e-27
10317 344 0.0015 -0.535727 -1.85581 0 -3.95415e-12 -2.23097e-12 0 1.68424e-20 4.67259e-27
6037 202 0.0015 -0.342237 -1.85471 0 2.60481e-12 -4.12451e-12 0 5.48788e-21 3.19111e-26
1960 66 0.0015 0.0113172 -1.85437 0 3.41462e-13 -4.26165e-12 0 0 1.21896e-26
3520 118 0.0015 0.688722 -1.85412 0 6.4408e-12 6.41339e-12 0 0 3.689e-26
2656 89 0.0015 -0.626725 -1.85209 0 3.42475e-12 -2.66009e-12 0 0 1.44528e-26
10320 344 0.0015 -0.5442 -1.85309 0 -2.8115e-12 2.25063e-12 0 1.68424e-20 9.33118e-27
10319 344 0.0015 -0.541376 -1.854 0 2.77261e-13 -4.41826e-12 0 3.36849e-20 1.18536e-26
10337 345 0.0015 -0.0713486 -1.85356 0 2.55573e-13 -4.08748e-13 0 3.14298e-20 4.22072e-27
8048 269 0.0015 0.150617 -1.85348 0 -2.07485e-13 1.88144e-12 0 3.6872e-21 9.9976e-27
10273 343 0.0015 0.426335 -1.85342 0 -9.57854e-13 -6.74874e-12 0 1.24237e-20 2.66113e-26
1487 50 0.0015 0.592486 -1.85392 0 -1.70887e-12 -3.96938e-12 0 6.81478e-21 1.01959e-26
3519 118 0.0015 0.69126 -1.8522 0 -5.92609e-12 -4.33074e-12 0 0 2.84035e-26
10338 345 0.0015 -0.0720254 -1.85046 0 1.37557e-12 -6.6563e-12 0 3.14298e-20 6.73188e-26
10205 341 0.0015 0.286904 -1.85184 0 -3.16138e-13 3.54599e-12 0 0 1.20912e-26
6006 201 0.0015 0.506013 -1.85168 0 1.99857e-12 4.96806e-12 0 5.99535e-21 3.3331e-26
1488 50 0.0015 0.594712 -1.85101 0 1.12306e-12 2.47228e-12 0 0 8.50039e-27
3518 118 0.0015 0.693797 -1.85028 0 2.62822e-12 2.50642e-13 0 0 3.75226e-27
2657 89 0.0015 -0.630446 -1.84923 0 -5.25938e-12 3.77887e-12 0 0 2.73514e-26
1961 66 0.0015 0.0108371 -1.84959 0 -2.50654e-13 2.99973e-12 0 0 7.19554e-27
4772 160 0.0015 0.0782973 -1.84905 0 -1.15246e-13 3.9354e-12 0 2.71488e-21 1.98135e-26
10274 343 0.0015 0.427056 -1.84946 0 -5.44085e-13 -1.75528e-13 0 1.24237e-20 1.98873e-26
1489 50 0.0015 0.596939 -1.8481 0 3.42088e-13 2.40094e-12 0 0 3.6598e-27
3517 118 0.0015 0.696334 -1.84837 0 -1.49038e-12 1.58127e-12 0 0 3.55761e-29
2658 89 0.0015 -0.634167 -1.84638 0 8.51011e-12 -5.7411e-12 0 0 7.6263e-26
6038 202 0.0015 -0.34704 -1.84697 0 -2.19955e-12 3.44351e-12 0 2.74394e-21 2.61315e-26
10339 345 0.0015 -0.0727023 -1.84735 0 -3.21003e-12 1.64483e-11 0 1.57149e-20 1.24005e-25
8049 269 0.0015 0.149922 -1.84674 0 5.94429e-14 -3.04654e-13 0 0 1.69851e-26
6541 219 0.0015 0.213251 -1.84656 0 -5.18656e-16 -1.33884e-13 0 0 3.51511e-29
4534 152 0.0015 0.362172 -1.84745 0 -1.71647e-13 9.42637e-13 0 5.72705e-21 5.69873e-27
3516 118 0.0015 0.698871 -1.84645 0 -1.57838e-12 -3.53987e-12 0 0 1.04067e-26
8014 268 0.0015 -0.163039 -1.84452 0 -5.81249e-13 -1.65485e-12 0 1.90242e-21 9.59171e-27
10340 345 0.0015 -0.0733791 -1.84424 0 1.56518e-12 -8.7334e-12 0 0 5.97992e-26
1962 66 0.0015 0.010357 -1.84481 0 4.52748e-13 -4.3715e-12 0 0 1.77461e-26
10206 341 0.0015 0.286103 -1.84511 0 5.40526e-14 -1.16997e-12 0 0 8.78275e-27
10275 343 0.0015 0.427777 -1.84551 0 2.25161e-12 9.8238e-12 0 1.24237e-20 6.48398e-26
1490 50 0.0015 0.599165 -1.84519 0 2.5317e-12 -4.76606e-13 0 0 1.30169e-26
3515 118 0.0015 0.701409 -1.84454 0 7.08268e-12 6.81992e-12 0 1.57149e-20 4.57822e-26
2659 89 0.0015 -0.637888 -1.84352 0 -9.29937e-12 6.23431e-12 0 0 8.55525e-26
6007 201 0.0015 0.509028 -1.84391 0 -1.08902e-12 -2.67851e-12 0 1.19907e-20 1.48127e-26
1491 50 0.0015 0.601391 -1.84228 0 -6.53317e-12 -5.13236e-12 0 0 3.49171e-26
3514 118 0.0015 0.703946 -1.84262 0 -6.43944e-12 -6.74727e-12 0 1.57149e-20 4.26785e-26
2660 89 0.0015 -0.641609 -1.84066 0 2.82472e-12 -1.60288e-12 0 0 2.5781e-26
10341 345 0.0015 -0.074056 -1.84114 0 4.36033e-13 -3.20552e-12 0 1.57149e-20 1.37473e-26
1963 66 0.0015 0.00987681 -1.84004 0 -7.13141e-13 6.39344e-12 0 5.20104e-21 2.78953e-26
10276 343 0.0015 0.428498 -1.84155 0 -2.25161e-12 -9.8238e-12 0 1.24237e-20 6.48398e-26
3513 118 0.0015 0.706483 -1.84071 0 -2.06156e-12 7.33818e-13 0 3.14298e-20 2.19922e-26
6039 202 0.0015 -0.351842 -1.83924 0 -2.87796e-13 5.9002e-13 0 0 1.00687e-26
10342 345 0.0015 -0.0747328 -1.83803 0 -1.60569e-12 1.00441e-11 0 1.57149e-20 4.80352e-26
4773 160 0.0015 0.0780361 -1.83985 0 8.54319e-14 -2.86921e-12 0 2.71488e-21 1.21534e-26
8050 269 0.0015 0.149226 -1.84 0 7.45328e-13 -7.63679e-12 0 0 6.85919e-26
6542 219 0.0015 0.21269 -1.83947 0 -1.15483e-13 1.91163e-12 0 0 6.30122e-27
10207 341 0.0015 0.285302 -1.83839 0 2.58944e-13 -2.03931e-12 0 0 4.12712e-27
4535 152 0.0015 0.360823 -1.83883 0 -3.78928e-13 2.38567e-12 0 5.72705e-21 9.53906e-27
1492 50 0.0015 0.603618 -1.83936 0 6.77003e-12 6.25813e-12 0 6.81478e-21 4.24427e-26
3512 118 0.0015 0.70902 -1.83879 0 6.80445e-12 3.95563e-12 0 1.57149e-20 2.70123e-26
2661 89 0.0015 -0.64533 -1.83781 0 1.39424e-12 -1.27602e-12 0 5.32605e-21 2.37081e-27
10277 343 0.0015 0.429219 -1.8376 0 5.44085e-13 1.75528e-13 0 1.24237e-20 1.98873e-26
6008 201 0.0015 0.512043 -1.83614 0 -1.83397e-14 -9.76293e-15 0 1.19907e-20 7.40324e-28
1493 50 0.0015 0.605844 -1.83645 0 -4.73268e-12 -4.31579e-12 0 1.36296e-20 2.19763e-26
3511 118 0.0015 0.711558 -1.83688 0 -3.06181e-12 -2.14385e-12 0 1.57149e-20 1.23218e-26
2662 89 0.0015 -0.649051 -1.83495 0 -3.95854e-13 4.0756e-14 0 1.06521e-20 1.07207e-27
10343 345 0.0015 -0.0754097 -1.83493 0 2.10841e-12 -1.07449e-11 0 3.14298e-20 5.40275e-26
1964 66 0.0015 0.00939668 -1.83526 0 4.52066e-13 -3.92449e-12 0 5.20104e-21 1.26197e-26
2663 89 0.0015 -0.652772 -1.8321 0 -1.25738e-12 1.76851e-12 0 1.06521e-20 3.70293e-27
10171 340 0.0015 -0.234195 -1.83312 0 2.50723e-13 -4.40001e-13 0 0 5.51745e-28
8015 268 0.0015 -0.158597 -1.83216 0 5.27864e-13 1.4926e-12 0 1.90242e-21 7.68557e-27
8051 269 0.0015 0.14853 -1.83326 0 -8.52978e-13 8.79077e-12 0 0 7.9687e-26
6543 219 0.0015 0.212128 -1.83239 0 2.2919e-13 -3.50108e-12 0 0 1.21548e-26
10278 343 0.0015 0.429939 -1.83364 0 9.57854e-13 6.74874e-12 0 1.24237e-20 2.66113e-26
1494 50 0.0015 0.60807 -1.83354 0 1.23943e-12 7.08156e-13 0 1.36296e-20 5.87939e-27
6040 202 0.0015 -0.356645 -1.83151 0 2.47847e-13 -4.91473e-13 0 0 1.06509e-26
10344 345 0.0015 -0.0760865 -1.83182 0 -2.68744e-12 1.07021e-11 0 1.57149e-20 5.49356e-26
1965 66 0.0015 0.00891654 -1.83048 0 -7.98118e-13 7.84231e-12 0 5.20104e-21 6.35338e-26
4774 160 0.0015 0.0777749 -1.83066 0 3.6101e-14 -1.45185e-12 0 0 1.57453e-26
10208 341 0.0015 0.284501 -1.83166 0 -1.07017e-13 7.90716e-13 0 0 3.18726e-27
4536 152 0.0015 0.359475 -1.83021 0 5.73727e-13 -3.44969e-12 0 1.14541e-20 1.49611e-26
1495 50 0.0015 0.610297 -1.83063 0 2.58159e-12 3.42642e-12 0 1.36296e-20 1.24806e-26
2664 89 0.0015 -0.656493 -1.82924 0 4.04744e-12 -3.96718e-12 0 5.32605e-21 2.42976e-26
10345 345 0.0015 -0.0767633 -1.82871 0 3.83766e-12 -1.4165e-11 0 1.57149e-20 9.65599e-26
10279 343 0.0015 0.43066 -1.82968 0 -7.64809e-13 -4.37212e-12 0 0 1.78169e-26
6009 201 0.0015 0.515058 -1.82837 0 7.52434e-13 1.86338e-12 0 5.99535e-21 6.32307e-27
2665 89 0.0015 -0.660213 -1.82639 0 -5.056e-12 4.15108e-12 0 0 2.92432e-26
10172 340 0.0015 -0.238704 -1.82673 0 -2.36825e-13 5.64461e-13 0 0 5.70795e-28
8052 269 0.0015 0.147835 -1.82652 0 5.34464e-13 -5.70056e-12 0 0 3.10985e-26
1496 50 0.0015 0.612523 -1.82772 0 -3.26393e-12 -4.16645e-12 0 6.81478e-21 1.53589e-26
10346 345 0.0015 -0.0774402 -1.82561 0 -3.73499e-12 1.33697e-11 0 0 8.81654e-26
1966 66 0.0015 0.0084364 -1.8257 0 1.01464e-12 -9.87044e-12 0 0 7.48776e-26
6544 219 0.0015 0.211567 -1.8253 0 -5.22487e-13 7.12057e-12 0 0 6.37412e-26
10209 341 0.0015 0.2837 -1.82493 0 -3.82871e-13 3.77698e-12 0 0 2.16624e-26
10280 343 0.0015 0.431381 -1.82573 0 2.40867e-13 2.57393e-12 0 0 5.18846e-27
1497 50 0.0015 0.614749 -1.8248 0 4.85253e-13 9.85591e-13 0 1.36296e-20 4.42733e-27
2666 89 0.0015 -0.663934 -1.82353 0 3.12802e-12 -2.27389e-12 0 0 1.06862e-26
6041 202 0.0015 -0.361448 -1.82377 0 1.56816e-12 -2.4976e-12 0 2.74394e-21 1.1526e-26
10347 345 0.0015 -0.078117 -1.8225 0 1.50762e-12 -3.95125e-12 0 0 2.88424e-26
2667 89 0.0015 -0.667655 -1.82068 0 -1.67372e-12 1.94553e-12 0 0 4.12503e-27
10173 340 0.0015 -0.243212 -1.82034 0 4.64768e-13 -9.00519e-13 0 0 1.81758e-27
1967 66 0.0015 0.00795626 -1.82092 0 -1.05215e-13 5.20154e-13 0 0 2.17099e-26
4775 160 0.0015 0.0775136 -1.82146 0 -9.68032e-14 3.66366e-12 0 2.71488e-21 1.83995e-26
4537 152 0.0015 0.358127 -1.82159 0 -1.21338e-13 4.56171e-13 0 1.14541e-20 8.97669e-27
10281 343 0.0015 0.432102 -1.82177 0 -8.48513e-13 -8.1479e-12 0 0 4.60323e-26
6010 201 0.0015 0.518074 -1.8206 0 -3.65191e-13 -9.38679e-13 0 5.99535e-21 6.75638e-27
1498 50 0.0015 0.616976 -1.82189 0 1.30382e-12 7.36265e-13 0 1.36296e-20 1.00801e-27
8016 268 0.0015 -0.154154 -1.81981 0 -1.36057e-12 -3.7832e-12 0 1.90242e-21 3.18081e-26
10348 345 0.0015 -0.0787939 -1.81939 0 -5.48349e-13 1.22564e-12 0 0 8.00133e-27
8053 269 0.0015 0.147139 -1.81978 0 -4.9726e-13 5.27326e-12 0 0 2.64035e-26
6545 219 0.0015 0.211005 -1.81821 0 5.13118e-13 -6.87137e-12 0 0 6.21645e-26
10210 341 0.0015 0.282899 -1.8182 0 8.03462e-13 -7.56361e-12 0 0 5.51483e-26
1499 50 0.0015 0.619202 -1.81898 0 1.96025e-12 3.67912e-12 0 1.36296e-20 2.23784e-26
2668 89 0.0015 -0.671376 -1.81782 0 -4.81576e-13 -1.49126e-12 0 0 2.38785e-27
6042 202 0.0015 -0.366251 -1.81604 0 -7.80051e-14 8.94367e-14 0 2.74394e-21 1.53222e-26
10349 345 0.0015 -0.0794707 -1.81629 0 1.57264e-12 -7.34053e-12 0 0 2.69133e-26
1968 66 0.0015 0.00747613 -1.81614 0 -7.20509e-13 7.22497e-12 0 0 3.81331e-26
10282 343 0.0015 0.432823 -1.81781 0 1.73375e-12 1.35434e-11 0 0 1.05097e-25
1500 50 0.0015 0.621428 -1.81607 0 -2.60507e-12 -3.86984e-12 0 6.81478e-21 2.2078e-26
2669 89 0.0015 -0.675097 -1.81497 0 -1.46333e-12 2.79333e-12 0 0 1.66969e-26
5941 199 0.0015 0.740778 -1.81551 0 1.48276e-13 6.16298e-13 0 0 1.07211e-27
2670 89 0.0015 -0.678818 -1.81211 0 2.53861e-12 -2.47223e-12 0 0 1.61335e-26
10174 340 0.0015 -0.24772 -1.81396 0 -6.99762e-13 1.15729e-12 0 6.39056e-21 2.21695e-27
10350 345 0.0015 -0.0801475 -1.81318 0 -9.77834e-13 4.72562e-12 0 0 2.05629e-26
4776 160 0.0015 0.0772524 -1.81226 0 6.50472e-14 -2.44883e-12 0 2.71488e-21 7.73771e-27
8054 269 0.0015 0.146443 -1.81304 0 2.75588e-13 -3.09418e-12 0 0 1.39793e-26
4538 152 0.0015 0.356779 -1.81297 0 -3.07683e-13 2.23994e-12 0 1.71811e-20 6.1944e-27
10283 343 0.0015 0.433544 -1.81386 0 -2.35303e-12 -1.51936e-11 0 0 1.31961e-25
6011 201 0.0015 0.521089 -1.81283 0 1.2658e-13 3.0056e-13 0 5.99535e-21 2.77927e-27
1969 66 0.0015 0.00699599 -1.81136 0 1.17631e-12 -1.09335e-11 0 0 8.24266e-26
6546 219 0.0015 0.210443 -1.81113 0 -3.22011e-14 6.53751e-13 0 3.51396e-21 5.65108e-27
10211 341 0.0015 0.282098 -1.81148 0 -4.63044e-13 4.38823e-12 0 0 3.38902e-26
6043 202 0.0015 -0.371054 -1.8083 0 -2.39411e-12 3.94286e-12 0 2.74394e-21 2.88785e-26
10284 343 0.0015 0.434265 -1.8099 0 1.82889e-12 1.02818e-11 0 0 7.57616e-26
10175 340 0.0015 -0.252228 -1.80757 0 -3.88688e-13 4.60931e-13 0 1.27811e-20 2.76572e-27
8017 268 0.0015 -0.149712 -1.80745 0 9.12968e-13 2.53807e-12 0 0 2.42463e-26
1970 66 0.0015 0.00651585 -1.80658 0 -9.81341e-13 8.86039e-12 0 0 6.21833e-26
8055 269 0.0015 0.145748 -1.8063 0 -7.36443e-14 1.14359e-12 0 0 1.33094e-27
5942 199 0.0015 0.743061 -1.80618 0 -8.58898e-13 -3.41983e-12 0 0 2.33902e-26