ITEM: TIMESTEP
18920
ITEM: NUMBER OF ATOMS
10500
ITEM: BOX BOUNDS pp pp pp
-1.0249999999999999e+00 1.0249999999999999e+00
-2.0000000000000000e+00 2.0000000000000000e+00
-5.0000000000000003e-02 5.0000000000000003e-02
ITEM: ATOMS id type radius x y z fx fy fz c_bendingE c_stretchingE
10321 345 0.0015 -0.0605191 -1.90326 0 4.00841e-13 -2.39067e-12 0 0 5.1769e-27
6031 202 0.0015 -0.31342 -1.90111 0 -1.64225e-15 2.96628e-14 0 0 1.71835e-30
10322 345 0.0015 -0.061196 -1.90016 0 -1.82177e-13 2.63648e-12 0 0 5.21e-27
8041 269 0.0015 0.155487 -1.90065 0 1.04351e-13 -1.06976e-12 0 3.6872e-21 2.17402e-27
10261 343 0.0015 0.417684 -1.90089 0 -6.5511e-13 -3.50555e-12 0 0 1.42062e-26
1471 50 0.0015 0.556864 -1.90052 0 -4.59469e-13 -1.17338e-12 0 0 1.49377e-27
10323 345 0.0015 -0.0618728 -1.89705 0 -9.93998e-13 2.13975e-12 0 1.57149e-20 5.53467e-27
1951 66 0.0015 0.0156385 -1.89738 0 1.44654e-13 -1.38408e-12 0 0 2.58363e-27
10262 343 0.0015 0.418405 -1.89694 0 6.65147e-13 3.22905e-12 0 0 1.42877e-26
1472 50 0.0015 0.559091 -1.8976 0 9.68769e-13 2.50864e-12 0 0 3.40511e-27
2641 89 0.0015 -0.570912 -1.89491 0 -2.69617e-13 2.14577e-13 0 0 1.54645e-28
1473 50 0.0015 0.561317 -1.89469 0 1.16616e-12 1.33046e-12 0 0 1.19207e-26
2642 89 0.0015 -0.574633 -1.89206 0 -3.27153e-13 1.8662e-13 0 5.32605e-21 8.25692e-28
6032 202 0.0015 -0.318223 -1.89337 0 4.35072e-13 -7.68461e-13 0 0 1.85588e-27
10324 345 0.0015 -0.0625496 -1.89394 0 1.04053e-12 -2.97403e-12 0 1.57149e-20 5.85365e-27
1952 66 0.0015 0.0151583 -1.8926 0 -3.33458e-13 3.05169e-12 0 0 6.3408e-27
8042 269 0.0015 0.154791 -1.89391 0 -1.92048e-13 2.02853e-12 0 3.6872e-21 3.91816e-27
10263 343 0.0015 0.419126 -1.89298 0 1.78388e-13 1.59141e-12 0 0 2.04976e-27
3540 118 0.0015 0.637977 -1.89243 0 -3.6267e-13 -4.34529e-13 0 0 2.68352e-28
6061 203 0.0015 -0.387409 -1.89062 0 2.27559e-12 -6.25396e-14 0 0 2.4227e-27
10325 345 0.0015 -0.0632265 -1.89084 0 6.93271e-14 -1.26892e-12 0 3.14298e-20 3.49337e-27
10231 342 0.0015 0.215 -1.89 0 -2.95994e-13 0 0 0 1.6784e-29
10232 342 0.0015 0.21569 -1.89 0 5.42871e-13 0 0 0 2.8502e-29
10233 342 0.0015 0.216379 -1.89 0 3.66651e-14 0 0 0 2.71196e-29
10234 342 0.0015 0.217069 -1.89 0 2.53103e-13 0 0 0 7.06632e-29
10235 342 0.0015 0.217759 -1.89 0 -5.43315e-13 0 0 0 5.5269e-29
10236 342 0.0015 0.218448 -1.89 0 4.70652e-13 0 0 0 4.13671e-29
10237 342 0.0015 0.219138 -1.89 0 -1.84683e-12 0 0 0 4.07576e-28
10238 342 0.0015 0.219828 -1.89 0 1.95638e-12 0 0 0 4.29183e-28
10239 342 0.0015 0.220517 -1.89 0 -5.43982e-13 0 0 0 6.31389e-29
10240 342 0.0015 0.221207 -1.89 0 1.45772e-13 0 0 0 6.03115e-30
10241 342 0.0015 0.221897 -1.89 0 -1.09329e-13 0 0 0 6.69876e-30
10242 342 0.0015 0.222586 -1.89 0 3.25989e-13 0 0 0 3.03084e-29
10243 342 0.0015 0.223276 -1.89 0 4.3443e-13 0 0 0 1.60444e-28
10244 342 0.0015 0.223966 -1.89 0 -2.10038e-12 0 0 0 4.41891e-28
10245 342 0.0015 0.224655 -1.89 0 2.17371e-12 0 0 0 4.65846e-28
10246 342 0.0015 0.225345 -1.89 0 -2.17371e-12 0 0 0 4.65846e-28
10247 342 0.0015 0.226034 -1.89 0 2.10038e-12 0 0 0 4.41891e-28
10248 342 0.0015 0.226724 -1.89 0 -4.3443e-13 0 0 0 1.60444e-28
10249 342 0.0015 0.227414 -1.89 0 -3.25989e-13 0 0 0 3.03084e-29
10250 342 0.0015 0.228103 -1.89 0 1.09329e-13 0 0 0 6.69876e-30
10251 342 0.0015 0.228793 -1.89 0 -1.45772e-13 0 0 0 6.03115e-30
10252 342 0.0015 0.229483 -1.89 0 5.43982e-13 0 0 0 6.31389e-29
10253 342 0.0015 0.230172 -1.89 0 -1.95638e-12 0 0 0 4.29183e-28
10254 342 0.0015 0.230862 -1.89 0 1.84683e-12 0 0 0 4.07576e-28
10255 342 0.0015 0.231552 -1.89 0 -4.70652e-13 0 0 0 4.13671e-29
10256 342 0.0015 0.232241 -1.89 0 5.43315e-13 0 0 0 5.5269e-29
10257 342 0.0015 0.232931 -1.89 0 -2.53103e-13 0 0 0 7.06632e-29
10258 342 0.0015 0.233621 -1.89 0 -3.66651e-14 0 0 0 2.71196e-29
10259 342 0.0015 0.23431 -1.89 0 -5.42871e-13 0 0 0 2.8502e-29
10260 342 0.0015 0.235 -1.89 0 2.95994e-13 0 0 0 1.6784e-29
6001 201 0.0015 0.490936 -1.89052 0 7.05357e-14 1.87462e-13 0 0 9.28517e-29
1474 50 0.0015 0.563543 -1.89178 0 -2.56689e-12 -5.10265e-12 0 0 1.62585e-26
3539 118 0.0015 0.640514 -1.89051 0 -2.08289e-13 2.84898e-13 0 0 5.3147e-28
2643 89 0.0015 -0.578354 -1.8892 0 1.24739e-12 -8.17797e-13 0 5.32605e-21 1.44305e-27
6063 203 0.0015 -0.391043 -1.8889 0 3.06795e-12 -4.06465e-13 0 0 2.59556e-27
6064 203 0.0015 -0.392859 -1.88804 0 -4.02255e-13 2.94285e-12 0 0 8.17624e-28
6062 203 0.0015 -0.389226 -1.88976 0 -4.57086e-12 -4.23623e-13 0 0 4.36599e-27
10264 343 0.0015 0.419847 -1.88903 0 -2.03529e-13 -1.0132e-12 0 0 2.06482e-27
1475 50 0.0015 0.56577 -1.88887 0 1.37315e-14 2.24799e-12 0 0 6.72445e-27
3538 118 0.0015 0.643052 -1.8886 0 1.09994e-12 1.84532e-13 0 0 4.36589e-28
2644 89 0.0015 -0.582074 -1.88635 0 6.92375e-14 -1.89729e-13 0 5.32605e-21 1.9237e-27
6066 203 0.0015 -0.396492 -1.88631 0 -1.72188e-12 3.98988e-13 0 0 8.55882e-28
6065 203 0.0015 -0.394676 -1.88717 0 -1.92112e-14 -2.98722e-12 0 0 4.5411e-28
7981 267 0.0015 -0.194876 -1.88635 0 -1.54648e-12 6.12605e-13 0 1.00459e-20 1.91075e-27
10326 345 0.0015 -0.0639033 -1.88773 0 -7.46767e-13 4.14125e-12 0 1.57149e-20 7.89159e-27
1953 66 0.0015 0.0146782 -1.88782 0 2.92679e-13 -2.45663e-12 0 0 4.60129e-27
8043 269 0.0015 0.154095 -1.88717 0 7.75933e-15 -2.64464e-13 0 3.6872e-21 2.66321e-27
3537 118 0.0015 0.645589 -1.88668 0 -2.15744e-12 -6.54796e-13 0 1.57149e-20 2.64563e-27
6068 203 0.0015 -0.400126 -1.88459 0 -3.00046e-12 -1.64037e-12 0 2.48474e-20 2.93193e-27
6067 203 0.0015 -0.398309 -1.88545 0 3.94095e-12 6.4717e-13 0 0 3.45904e-27
6033 202 0.0015 -0.323025 -1.88564 0 -8.18099e-13 1.36555e-12 0 0 3.22168e-27
7983 267 0.0015 -0.199527 -1.8846 0 -5.86834e-13 -1.96915e-12 0 1.00459e-20 1.46223e-27
7982 267 0.0015 -0.197202 -1.88548 0 2.67269e-12 -3.26933e-13 0 1.00459e-20 2.53717e-27
10327 345 0.0015 -0.0645802 -1.88463 0 5.10987e-13 -2.90593e-12 0 1.57149e-20 5.09952e-27
10265 343 0.0015 0.420568 -1.88507 0 1.49098e-13 -4.94255e-13 0 1.24237e-20 1.27169e-28
1476 50 0.0015 0.567996 -1.88596 0 1.74481e-12 8.60701e-13 0 6.81478e-21 1.62003e-27
3536 118 0.0015 0.648126 -1.88476 0 3.5142e-12 1.39652e-12 0 1.57149e-20 5.90966e-27
2645 89 0.0015 -0.585795 -1.88349 0 -1.80684e-12 1.46147e-12 0 5.32605e-21 3.64338e-27
6071 203 0.0015 -0.405575 -1.882 0 1.32062e-12 1.03043e-13 0 0 3.14441e-27
6070 203 0.0015 -0.403759 -1.88287 0 1.75077e-12 -4.42486e-12 0 2.48474e-20 3.98628e-27
6069 203 0.0015 -0.401942 -1.88373 0 -8.61182e-13 4.5871e-12 0 2.48474e-20 3.4657e-27
7985 267 0.0015 -0.204179 -1.88284 0 1.12938e-12 -1.70272e-12 0 1.00459e-20 2.13799e-27
7984 267 0.0015 -0.201853 -1.88372 0 -1.88701e-12 3.08597e-12 0 0 2.96717e-27
1954 66 0.0015 0.0141981 -1.88304 0 -2.94075e-13 2.56186e-12 0 5.20104e-21 5.08537e-27
6002 201 0.0015 0.493952 -1.88275 0 -5.65767e-13 -1.46656e-12 0 5.99535e-21 4.44772e-27
1477 50 0.0015 0.570222 -1.88304 0 -5.59232e-13 2.8508e-13 0 6.81478e-21 2.05822e-27
3535 118 0.0015 0.650663 -1.88285 0 -2.44465e-12 -8.14884e-13 0 1.57149e-20 3.63185e-27
2646 89 0.0015 -0.589516 -1.88064 0 6.42238e-13 -5.07105e-13 0 1.06521e-20 2.90717e-27
6073 203 0.0015 -0.409209 -1.88028 0 3.11565e-12 -3.84603e-12 0 0 7.37237e-27
6072 203 0.0015 -0.407392 -1.88114 0 -4.70672e-12 3.27249e-12 0 0 9.44236e-27
7988 267 0.0015 -0.211156 -1.8802 0 1.99113e-12 2.38049e-12 0 0 1.04295e-27
7987 267 0.0015 -0.208831 -1.88108 0 -1.60041e-13 -2.11107e-12 0 1.00459e-20 1.38457e-28
7986 267 0.0015 -0.206505 -1.88196 0 1.28175e-13 1.20372e-12 0 1.00459e-20 1.19294e-28
8011 268 0.0015 -0.176367 -1.88159 0 2.59586e-14 7.49454e-14 0 1.90242e-21 2.29408e-29
10328 345 0.0015 -0.065257 -1.88152 0 -1.63293e-13 3.94731e-13 0 2.35723e-20 3.87546e-28
8044 269 0.0015 0.1534 -1.88043 0 2.70061e-13 -2.55529e-12 0 0 7.50462e-27
10266 343 0.0015 0.421289 -1.88111 0 -5.74606e-13 -1.48863e-12 0 2.48474e-20 3.38502e-27
1478 50 0.0015 0.572449 -1.88013 0 -8.81177e-13 -2.39076e-12 0 6.81478e-21 3.16585e-27
3534 118 0.0015 0.653201 -1.88093 0 -9.37177e-13 -1.18481e-12 0 0 3.48709e-27
10292 344 0.0015 -0.465124 -1.8785 0 -1.42871e-12 6.82533e-13 0 0 1.25266e-27
10291 344 0.0015 -0.4623 -1.87941 0 3.66508e-13 -1.80324e-13 0 0 1.34544e-28
6074 203 0.0015 -0.411025 -1.87942 0 -2.74463e-13 4.9847e-12 0 0 1.64864e-27
6075 203 0.0015 -0.412842 -1.87856 0 -2.91221e-12 -3.57964e-12 0 0 4.68787e-27
7990 267 0.0015 -0.215808 -1.87844 0 2.61425e-13 5.86597e-12 0 2.00918e-20 1.62122e-27
7989 267 0.0015 -0.213482 -1.87932 0 -2.3332e-12 -3.6879e-12 0 1.00459e-20 1.09503e-27
10329 345 0.0015 -0.0659339 -1.87841 0 1.65096e-13 8.555e-13 0 2.35723e-20 3.48222e-28
1955 66 0.0015 0.0137179 -1.87827 0 4.88239e-13 -4.62571e-12 0 1.04021e-20 1.52179e-26
10201 341 0.0015 0.290108 -1.87875 0 -8.26817e-14 7.1598e-13 0 0 9.77557e-28
3533 118 0.0015 0.655738 -1.87902 0 3.42692e-12 2.59627e-12 0 0 8.24635e-27
2647 89 0.0015 -0.593237 -1.87778 0 1.58008e-12 -1.24789e-12 0 1.06521e-20 3.14908e-27
10294 344 0.0015 -0.470773 -1.87669 0 -2.07495e-12 6.46832e-14 0 0 1.64972e-27
10293 344 0.0015 -0.467948 -1.87759 0 1.94439e-12 -7.69609e-13 0 0 1.81815e-27
6077 203 0.0015 -0.416475 -1.87683 0 -9.78649e-12 5.99441e-13 0 2.48474e-20 2.90833e-26
6076 203 0.0015 -0.414658 -1.87769 0 9.65661e-12 -1.53434e-12 0 0 2.9837e-26
6034 202 0.0015 -0.327828 -1.87791 0 5.09814e-13 -8.12685e-13 0 0 1.49438e-27
7992 267 0.0015 -0.22046 -1.87668 0 1.93969e-12 3.2628e-12 0 1.00459e-20 9.3222e-28
7991 267 0.0015 -0.218134 -1.87756 0 -2.30907e-13 -6.02974e-12 0 2.00918e-20 1.66651e-27
10267 343 0.0015 0.42201 -1.87716 0 8.67349e-13 3.70524e-12 0 3.72711e-20 8.13057e-27
1479 50 0.0015 0.574675 -1.87722 0 5.48264e-13 1.87886e-12 0 6.81478e-21 2.36895e-27
3532 118 0.0015 0.658275 -1.8771 0 -2.42086e-12 -1.52554e-12 0 0 5.1595e-27
2648 89 0.0015 -0.596958 -1.87493 0 -1.25706e-12 1.10045e-12 0 5.32605e-21 2.7959e-27
10296 344 0.0015 -0.476421 -1.87487 0 -1.22503e-12 -5.91711e-13 0 1.68424e-20 1.89265e-27
10295 344 0.0015 -0.473597 -1.87578 0 2.8076e-12 5.06851e-13 0 0 2.66867e-27
6080 203 0.0015 -0.421925 -1.87425 0 4.49148e-12 -3.21566e-13 0 2.48474e-20 4.93992e-27
6079 203 0.0015 -0.420108 -1.87511 0 -3.32738e-12 -2.77704e-12 0 4.96948e-20 2.13822e-27
6078 203 0.0015 -0.418291 -1.87597 0 4.14098e-12 3.82274e-12 0 4.96948e-20 2.80975e-27
7995 267 0.0015 -0.227437 -1.87404 0 -1.43732e-12 1.44755e-12 0 1.00459e-20 1.22911e-27
7994 267 0.0015 -0.225111 -1.87492 0 1.59693e-12 -2.41874e-12 0 1.00459e-20 1.91472e-27
7993 267 0.0015 -0.222785 -1.8758 0 -2.25398e-12 6.42898e-13 0 0 1.89417e-27
10330 345 0.0015 -0.0666107 -1.87531 0 -1.33558e-13 -1.54147e-12 0 2.35723e-20 1.00204e-27
6003 201 0.0015 0.496967 -1.87498 0 7.61362e-13 1.97527e-12 0 1.19907e-20 5.64064e-27
1480 50 0.0015 0.576901 -1.87431 0 -5.19576e-13 -1.28637e-12 0 6.81478e-21 1.13314e-27
3531 118 0.0015 0.660812 -1.87519 0 1.63233e-13 -4.95575e-13 0 0 5.80373e-28
2649 89 0.0015 -0.600679 -1.87207 0 2.47073e-13 -5.68204e-13 0 0 1.98425e-28
10299 344 0.0015 -0.484893 -1.87215 0 3.71535e-13 -9.99444e-13 0 3.36849e-20 3.59339e-27
10298 344 0.0015 -0.482069 -1.87306 0 2.98473e-12 7.02576e-14 0 5.05273e-20 3.42551e-27
10297 344 0.0015 -0.479245 -1.87396 0 -2.16897e-12 3.41924e-13 0 3.36849e-20 2.58463e-27
6082 203 0.0015 -0.425558 -1.87252 0 2.6836e-12 5.65653e-13 0 0 2.65378e-27
6081 203 0.0015 -0.423741 -1.87338 0 -4.24732e-12 1.36763e-12 0 0 5.46582e-27
7997 267 0.0015 -0.232089 -1.87228 0 1.20281e-12 -7.02308e-13 0 0 6.52754e-28
7996 267 0.0015 -0.229763 -1.87316 0 1.05213e-13 1.55294e-13 0 1.00459e-20 7.54608e-28
10331 345 0.0015 -0.0672875 -1.8722 0 -3.75387e-13 3.25569e-12 0 0 5.6761e-27
1956 66 0.0015 0.0132378 -1.87349 0 -6.17133e-13 5.84753e-12 0 1.56031e-20 2.30766e-26
8045 269 0.0015 0.152704 -1.87369 0 -2.1562e-13 2.21154e-12 0 0 6.81782e-27
10202 341 0.0015 0.289307 -1.87202 0 2.38194e-13 -2.10699e-12 0 0 4.66415e-27
4531 152 0.0015 0.366216 -1.8733 0 1.35344e-13 -8.69161e-13 0 5.72705e-21 1.87499e-27
10268 343 0.0015 0.422731 -1.8732 0 -5.7905e-13 -2.98488e-12 0 3.72711e-20 5.83265e-27
3530 118 0.0015 0.66335 -1.87327 0 3.38779e-13 1.21438e-12 0 0 4.83198e-28
10301 344 0.0015 -0.490541 -1.87033 0 1.23808e-12 -6.16768e-13 0 1.68424e-20 3.42511e-27
10300 344 0.0015 -0.487717 -1.87124 0 -3.35358e-12 1.73002e-12 0 3.36849e-20 5.72146e-27
6084 203 0.0015 -0.429191 -1.8708 0 2.52181e-12 4.63061e-12 0 0 6.15046e-28
6083 203 0.0015 -0.427374 -1.87166 0 -1.30313e-12 -4.09573e-12 0 0 1.88287e-28
6035 202 0.0015 -0.332631 -1.87017 0 -8.40739e-14 1.21404e-13 0 2.74394e-21 1.4165e-28
7999 267 0.0015 -0.23674 -1.87052 0 -1.45727e-13 -2.03995e-12 0 2.00918e-20 1.23949e-28
7998 267 0.0015 -0.234415 -1.8714 0 -6.08355e-13 8.94015e-13 0 0 3.33815e-28
1481 50 0.0015 0.579128 -1.8714 0 1.11002e-12 1.6444e-12 0 6.81478e-21 1.99716e-27
3529 118 0.0015 0.665887 -1.87136 0 8.68645e-13 -3.32871e-13 0 0 7.37149e-28
2650 89 0.0015 -0.6044 -1.86922 0 -1.343e-12 1.65969e-12 0 5.32605e-21 4.13788e-27
10303 344 0.0015 -0.49619 -1.86852 0 4.20772e-13 -3.30638e-13 0 0 4.43615e-27
10302 344 0.0015 -0.493366 -1.86943 0 1.77977e-12 -8.55185e-13 0 1.68424e-20 1.83028e-27
6087 203 0.0015 -0.434641 -1.86821 0 -2.57377e-12 -6.12375e-12 0 4.96948e-20 1.36758e-27
6085 203 0.0015 -0.431008 -1.86994 0 -4.12037e-12 -2.77429e-12 0 0 1.9646e-27
6086 203 0.0015 -0.432824 -1.86908 0 4.57726e-12 3.56844e-12 0 2.48474e-20 2.03823e-27
8001 267 0.0015 -0.241392 -1.86876 0 9.3561e-14 -1.58819e-12 0 3.01377e-20 7.58256e-28
8000 267 0.0015 -0.239066 -1.86964 0 -2.98773e-13 3.018e-12 0 3.01377e-20 7.65594e-28
8012 268 0.0015 -0.171924 -1.86923 0 -4.93146e-14 -1.4135e-13 0 1.90242e-21 4.10126e-29
10332 345 0.0015 -0.0679644 -1.86909 0 8.33287e-13 -4.14855e-12 0 1.57149e-20 8.02342e-27
1957 66 0.0015 0.0127576 -1.86871 0 5.83328e-13 -5.43601e-12 0 1.04021e-20 2.01444e-26
10269 343 0.0015 0.423451 -1.86924 0 1.72258e-13 1.61504e-12 0 2.48474e-20 1.52443e-27
1482 50 0.0015 0.581354 -1.86848 0 3.78854e-13 2.76257e-13 0 6.81478e-21 3.06528e-27
3528 118 0.0015 0.668424 -1.86944 0 -1.07664e-12 -5.06778e-13 0 1.57149e-20 7.19446e-28
2651 89 0.0015 -0.608121 -1.86636 0 1.31944e-12 -1.65649e-12 0 5.32605e-21 4.12105e-27
10305 344 0.0015 -0.501838 -1.8667 0 6.5552e-12 -3.43065e-12 0 1.68424e-20 2.28334e-26
10304 344 0.0015 -0.499014 -1.86761 0 -5.58371e-12 3.12237e-12 0 0 1.88326e-26
6089 203 0.0015 -0.438274 -1.86649 0 -9.4842e-13 4.17473e-13 0 2.48474e-20 3.24586e-28
6088 203 0.0015 -0.436457 -1.86735 0 1.10583e-12 3.68094e-12 0 4.96948e-20 1.11596e-27
8004 267 0.0015 -0.248369 -1.86612 0 1.97603e-13 -1.0651e-12 0 0 1.16975e-28
8003 267 0.0015 -0.246044 -1.867 0 -1.7537e-12 2.4727e-12 0 0 3.30469e-27
8002 267 0.0015 -0.243718 -1.86788 0 2.08769e-12 -1.54491e-12 0 1.00459e-20 3.29704e-27
8046 269 0.0015 0.152008 -1.86695 0 -8.2686e-14 6.5313e-13 0 3.6872e-21 2.15004e-27
6004 201 0.0015 0.499982 -1.86721 0 2.10477e-13 4.86658e-13 0 1.19907e-20 5.0495e-27
3527 118 0.0015 0.670962 -1.86752 0 1.39459e-12 2.08999e-12 0 1.57149e-20 3.80689e-27
10307 344 0.0015 -0.507486 -1.86489 0 1.22608e-12 9.83889e-13 0 1.68424e-20 3.11306e-28
10306 344 0.0015 -0.504662 -1.8658 0 -3.20214e-12 1.01902e-12 0 1.68424e-20 7.07022e-27
6090 203 0.0015 -0.440091 -1.86563 0 1.27014e-13 -5.91829e-13 0 0 7.58183e-29
8006 267 0.0015 -0.253021 -1.86436 0 1.84862e-12 9.47684e-14 0 0 1.14788e-27
8005 267 0.0015 -0.250695 -1.86524 0 -1.44929e-12 8.96293e-14 0 0 9.95136e-28
10333 345 0.0015 -0.0686412 -1.86599 0 -6.33075e-13 2.60331e-12 0 1.57149e-20 3.6379e-27
10203 341 0.0015 0.288506 -1.8653 0 -3.25512e-13 2.95772e-12 0 0 8.3597e-27
4532 152 0.0015 0.364868 -1.86469 0 -8.12939e-14 5.40687e-13 0 1.14541e-20 2.14351e-27
10270 343 0.0015 0.424172 -1.86529 0 -9.72661e-15 -9.39809e-13 0 2.48474e-20 5.54931e-28
1483 50 0.0015 0.58358 -1.86557 0 -2.38287e-12 -2.78607e-12 0 6.81478e-21 7.14689e-27
3526 118 0.0015 0.673499 -1.86561 0 -4.48913e-12 -5.60851e-12 0 1.57149e-20 2.50124e-26
2652 89 0.0015 -0.611842 -1.86351 0 1.10648e-12 -3.30199e-13 0 5.32605e-21 2.60557e-27
10310 344 0.0015 -0.515959 -1.86217 0 1.90524e-13 -2.16779e-12 0 1.68424e-20 1.81138e-27
10309 344 0.0015 -0.513134 -1.86307 0 2.83189e-12 1.61484e-12 0 0 2.52156e-27
10308 344 0.0015 -0.51031 -1.86398 0 -2.60854e-12 -1.37702e-12 0 0 2.41382e-27
6036 202 0.0015 -0.337434 -1.86244 0 2.38492e-13 -4.31279e-13 0 2.74394e-21 8.32607e-28
8008 267 0.0015 -0.257673 -1.8626 0 1.56322e-12 -3.81477e-12 0 1.00459e-20 3.08432e-27
8007 267 0.0015 -0.255347 -1.86348 0 -1.10812e-12 1.06232e-12 0 0 7.40407e-28
10334 345 0.0015 -0.0693181 -1.86288 0 3.39547e-13 -1.30268e-12 0 1.57149e-20 8.38968e-28
1958 66 0.0015 0.0122775 -1.86393 0 -6.25019e-13 5.80704e-12 0 1.04021e-20 2.33303e-26
1484 50 0.0015 0.585807 -1.86266 0 2.04302e-12 2.05336e-12 0 1.36296e-20 5.48234e-27
3525 118 0.0015 0.676036 -1.86369 0 4.48913e-12 5.60851e-12 0 1.57149e-20 2.50124e-26
2653 89 0.0015 -0.615563 -1.86065 0 -1.1624e-12 4.79357e-13 0 5.32605e-21 2.52281e-27
10312 344 0.0015 -0.521607 -1.86035 0 3.32507e-12 -1.4002e-12 0 3.36849e-20 5.33293e-27
10311 344 0.0015 -0.518783 -1.86126 0 -2.77275e-12 2.03268e-12 0 3.36849e-20 4.485e-27
8010 267 0.0015 -0.262324 -1.86085 0 2.10143e-13 -1.57556e-12 0 1.00459e-20 3.92595e-28
8009 267 0.0015 -0.259998 -1.86172 0 -1.22854e-12 4.28832e-12 0 1.00459e-20 2.91815e-27
8047 269 0.0015 0.151313 -1.86021 0 2.02736e-13 -1.91009e-12 0 3.6872e-21 3.48066e-27
10271 343 0.0015 0.424893 -1.86133 0 5.06409e-14 4.99231e-13 0 1.24237e-20 1.4165e-28
3524 118 0.0015 0.678573 -1.86178 0 -1.39459e-12 -2.08999e-12 0 1.57149e-20 3.80689e-27
10314 344 0.0015 -0.527255 -1.85854 0 -5.99252e-13 8.59553e-13 0 0 1.75094e-27
10313 344 0.0015 -0.524431 -1.85944 0 -2.2028e-12 4.67804e-13 0 1.68424e-20 2.6494e-27
10335 345 0.0015 -0.0699949 -1.85978 0 -5.12706e-13 1.99788e-12 0 0 2.33306e-27
1959 66 0.0015 0.0117974 -1.85915 0 4.06925e-13 -3.57373e-12 0 1.04021e-20 1.53457e-26
4771 160 0.0015 0.0785585 -1.85825 0 1.21988e-14 -4.76307e-13 0 0 5.80223e-28
10204 341 0.0015 0.287705 -1.85857 0 8.94719e-14 -9.708e-13 0 0 5.3534e-27
6005 201 0.0015 0.502997 -1.85945 0 -4.31216e-13 -1.0248e-12 0 5.99535e-21 3.8258e-27
1485 50 0.0015 0.588033 -1.85975 0 -8.80832e-13 -1.55421e-14 0 1.36296e-20 4.29399e-28
3523 118 0.0015 0.681111 -1.85986 0 1.07664e-12 5.06778e-13 0 1.57149e-20 7.19446e-28
2654 89 0.0015 -0.619284 -1.8578 0 -4.64838e-13 5.82147e-13 0 1.06521e-20 4.38897e-28
10316 344 0.0015 -0.532903 -1.85672 0 3.08829e-12 -9.99447e-13 0 1.68424e-20 6.76873e-27
10315 344 0.0015 -0.530079 -1.85763 0 7.51017e-13 -7.69171e-13 0 1.68424e-20 1.66089e-27
8013 268 0.0015 -0.167482 -1.85688 0 -1.35332e-13 -3.76648e-13 0 1.90242e-21 8.25881e-28
10336 345 0.0015 -0.0706718 -1.85667 0 8.65896e-13 -3.59501e-12 0 1.57149e-20 6.20356e-27
4533 152 0.0015 0.36352 -1.85607 0 -1.47733e-13 9.01095e-13 0 1.71811e-20 1.08431e-27
10272 343 0.0015 0.425614 -1.85738 0 -6.51799e-13 -3.25888e-12 0 1.24237e-20 1.08022e-26
1486 50 0.0015 0.59026 -1.85684 0 8.80832e-13 1.55421e-14 0 1.36296e-20 4.29399e-28
3522 118 0.0015 0.683648 -1.85795 0 -8.68645e-13 3.32871e-13 0 0 7.37149e-28
3521 118 0.0015 0.686185 -1.85603 0 -3.38779e-13 -1.21438e-12 0 0 4.83198e-28
2655 89 0.0015 -0.623004 -1.85494 0 4.15095e-13 -2.64224e-13 0 1.06521e-20 4.07975e-28
10318 344 0.0015 -0.538552 -1.85491 0 -3.16141e-12 -3.05139e-13 0 0 6.8296e-27
10317 344 0.0015 -0.535727 -1.85581 0 -2.49678e-12 1.37928e-12 0 1.68424e-20 6.63192e-27
6037 202 0.0015 -0.342237 -1.85471 0 -7.5481e-13 1.32592e-12 0 2.74394e-21 3.12859e-27
1960 66 0.0015 0.0113172 -1.85437 0 4.7032e-14 -8.84065e-13 0 1.04021e-20 1.6622e-27
3520 118 0.0015 0.688722 -1.85412 0 -1.63233e-13 4.95575e-13 0 0 5.80373e-28
2656 89 0.0015 -0.626725 -1.85209 0 1.23926e-13 -3.91853e-13 0 5.32605e-21 1.01492e-28
10320 344 0.0015 -0.5442 -1.85309 0 -1.97573e-12 8.53604e-14 0 0 2.99697e-27
10319 344 0.0015 -0.541376 -1.854 0 4.9729e-12 -1.67951e-13 0 0 9.82539e-27
10337 345 0.0015 -0.0713486 -1.85356 0 -7.39638e-13 3.24365e-12 0 3.14298e-20 5.31819e-27
8048 269 0.0015 0.150617 -1.85348 0 -6.541e-14 5.42786e-13 0 3.6872e-21 1.81318e-27
10273 343 0.0015 0.426335 -1.85342 0 9.98832e-13 5.20829e-12 0 0 1.61596e-26
1487 50 0.0015 0.592486 -1.85392 0 -2.04302e-12 -2.05336e-12 0 1.36296e-20 5.48234e-27
3519 118 0.0015 0.69126 -1.8522 0 2.42086e-12 1.52554e-12 0 0 5.1595e-27
10338 345 0.0015 -0.0720254 -1.85046 0 3.4364e-14 -9.65239e-14 0 3.14298e-20 2.2135e-27
10205 341 0.0015 0.286904 -1.85184 0 1.98448e-13 -1.62587e-12 0 3.6872e-21 2.70277e-27
6006 201 0.0015 0.506013 -1.85168 0 -7.73305e-13 -2.02952e-12 0 5.99535e-21 9.39594e-27
1488 50 0.0015 0.594712 -1.85101 0 2.38287e-12 2.78607e-12 0 6.81478e-21 7.14689e-27
3518 118 0.0015 0.693797 -1.85028 0 -3.42692e-12 -2.59627e-12 0 0 8.24635e-27
2657 89 0.0015 -0.630446 -1.84923 0 -1.40066e-12 1.37237e-12 0 5.32605e-21 3.75276e-27
1961 66 0.0015 0.0108371 -1.84959 0 1.50891e-14 1.12279e-13 0 5.20104e-21 2.89887e-27
4772 160 0.0015 0.0782973 -1.84905 0 8.94771e-15 -2.21438e-13 0 0 1.82568e-27
10274 343 0.0015 0.427056 -1.84946 0 -3.95199e-13 -2.1397e-12 0 0 5.41275e-27
1489 50 0.0015 0.596939 -1.8481 0 -3.78854e-13 -2.76257e-13 0 6.81478e-21 3.06528e-27
3517 118 0.0015 0.696334 -1.84837 0 9.37177e-13 1.18481e-12 0 0 3.48709e-27
2658 89 0.0015 -0.634167 -1.84638 0 2.18506e-12 -1.71059e-12 0 1.06521e-20 5.23184e-27
6038 202 0.0015 -0.34704 -1.84697 0 9.48431e-13 -1.63547e-12 0 0 4.51584e-27
10339 345 0.0015 -0.0727023 -1.84735 0 1.06124e-12 -4.65922e-12 0 3.14298e-20 1.31667e-26
8049 269 0.0015 0.149922 -1.84674 0 -2.00523e-13 2.14546e-12 0 3.6872e-21 6.28018e-27
6541 219 0.0015 0.213251 -1.84656 0 -1.02774e-15 1.26954e-14 0 0 3.20407e-31
4534 152 0.0015 0.362172 -1.84745 0 -3.24448e-14 2.43819e-13 0 1.14541e-20 2.46959e-27
3516 118 0.0015 0.698871 -1.84645 0 2.44465e-12 8.14884e-13 0 1.57149e-20 3.63185e-27
8014 268 0.0015 -0.163039 -1.84452 0 6.86822e-14 1.8758e-13 0 0 1.0754e-27
10340 345 0.0015 -0.0733791 -1.84424 0 -1.49148e-12 6.26503e-12 0 3.14298e-20 1.87329e-26
1962 66 0.0015 0.010357 -1.84481 0 -1.44035e-13 1.2193e-12 0 0 1.37444e-27
10206 341 0.0015 0.286103 -1.84511 0 7.66698e-14 -5.38112e-13 0 3.6872e-21 6.7209e-27
10275 343 0.0015 0.427777 -1.84551 0 1.57313e-13 1.01276e-12 0 0 1.23179e-27
1490 50 0.0015 0.599165 -1.84519 0 -1.11002e-12 -1.6444e-12 0 6.81478e-21 1.99716e-27
3515 118 0.0015 0.701409 -1.84454 0 -3.5142e-12 -1.39652e-12 0 1.57149e-20 5.90966e-27
2659 89 0.0015 -0.637888 -1.84352 0 5.39493e-14 -1.34211e-13 0 1.06521e-20 3.5268e-27
6007 201 0.0015 0.509028 -1.84391 0 1.4724e-12 3.77575e-12 0 1.19907e-20 1.90105e-26
1491 50 0.0015 0.601391 -1.84228 0 5.19576e-13 1.28637e-12 0 6.81478e-21 1.13314e-27
3514 118 0.0015 0.703946 -1.84262 0 2.15744e-12 6.54796e-13 0 1.57149e-20 2.64563e-27
2660 89 0.0015 -0.641609 -1.84066 0 -8.33929e-13 6.23375e-13 0 5.32605e-21 1.99542e-27
10341 345 0.0015 -0.074056 -1.84114 0 7.91281e-13 -3.46172e-12 0 4.71447e-20 7.17033e-27
1963 66 0.0015 0.00987681 -1.84004 0 8.36433e-14 -4.75116e-13 0 0 1.544e-28
10276 343 0.0015 0.428498 -1.84155 0 -1.57313e-13 -1.01276e-12 0 0 1.23179e-27
3513 118 0.0015 0.706483 -1.84071 0 -1.09994e-12 -1.84532e-13 0 0 4.36589e-28
6039 202 0.0015 -0.351842 -1.83924 0 -8.43553e-13 1.42424e-12 0 0 3.52015e-27
10342 345 0.0015 -0.0747328 -1.83803 0 2.07993e-13 -8.69972e-15 0 3.14298e-20 1.27459e-27
4773 160 0.0015 0.0780361 -1.83985 0 -5.79377e-14 1.99833e-12 0 2.71488e-21 5.57224e-27
8050 269 0.0015 0.149226 -1.84 0 3.03789e-13 -3.14908e-12 0 3.6872e-21 9.58059e-27
6542 219 0.0015 0.21269 -1.83947 0 5.25777e-14 -6.46518e-13 0 0 7.98855e-28
10207 341 0.0015 0.285302 -1.83839 0 -4.63261e-13 3.82298e-12 0 7.37441e-21 1.44029e-26
4535 152 0.0015 0.360823 -1.83883 0 3.20987e-13 -2.04602e-12 0 5.72705e-21 5.40932e-27
1492 50 0.0015 0.603618 -1.83936 0 -5.48264e-13 -1.87886e-12 0 6.81478e-21 2.36895e-27
3512 118 0.0015 0.70902 -1.83879 0 2.08289e-13 -2.84898e-13 0 0 5.3147e-28
2661 89 0.0015 -0.64533 -1.83781 0 -1.95131e-12 1.52337e-12 0 5.32605e-21 6.89083e-27
10277 343 0.0015 0.429219 -1.8376 0 3.95199e-13 2.1397e-12 0 0 5.41275e-27
6008 201 0.0015 0.512043 -1.83614 0 -1.45337e-12 -3.72545e-12 0 1.7986e-20 1.85173e-26
1493 50 0.0015 0.605844 -1.83645 0 8.81177e-13 2.39076e-12 0 6.81478e-21 3.16585e-27
3511 118 0.0015 0.711558 -1.83688 0 3.6267e-13 4.34529e-13 0 0 2.68352e-28
2662 89 0.0015 -0.649051 -1.83495 0 2.17107e-12 -1.52489e-12 0 1.06521e-20 7.01438e-27
10343 345 0.0015 -0.0754097 -1.83493 0 -5.95124e-13 1.4336e-12 0 3.14298e-20 1.0522e-27
1964 66 0.0015 0.00939668 -1.83526 0 -1.13787e-13 5.04445e-13 0 0 1.76549e-28
2663 89 0.0015 -0.652772 -1.8321 0 3.26709e-13 -6.07134e-13 0 1.06521e-20 1.43627e-27
10171 340 0.0015 -0.234195 -1.83312 0 3.27178e-13 -4.70858e-13 0 0 7.13881e-28
8015 268 0.0015 -0.158597 -1.83216 0 4.14886e-13 1.16515e-12 0 1.90242e-21 3.67086e-27
8051 269 0.0015 0.14853 -1.83326 0 -3.08835e-14 3.98313e-13 0 3.6872e-21 5.33683e-27
6543 219 0.0015 0.212128 -1.83239 0 -6.76049e-14 8.50218e-13 0 0 8.91508e-28
10278 343 0.0015 0.429939 -1.83364 0 -9.98832e-13 -5.20829e-12 0 0 1.61596e-26
1494 50 0.0015 0.60807 -1.83354 0 5.59232e-13 -2.8508e-13 0 6.81478e-21 2.05822e-27
6040 202 0.0015 -0.356645 -1.83151 0 5.71497e-13 -9.66366e-13 0 0 1.72234e-27
10344 345 0.0015 -0.0760865 -1.83182 0 4.15664e-13 -1.77303e-12 0 3.14298e-20 1.58196e-27
1965 66 0.0015 0.00891654 -1.83048 0 1.4266e-13 -7.6682e-13 0 0 4.38001e-28
4774 160 0.0015 0.0777749 -1.83066 0 4.38667e-14 -1.5416e-12 0 2.71488e-21 4.47537e-27
10208 341 0.0015 0.284501 -1.83166 0 3.63935e-13 -3.14008e-12 0 3.6872e-21 1.11959e-26
4536 152 0.0015 0.359475 -1.83021 0 -2.31477e-13 1.45137e-12 0 5.72705e-21 3.87796e-27
1495 50 0.0015 0.610297 -1.83063 0 -1.74481e-12 -8.60701e-13 0 6.81478e-21 1.62003e-27
2664 89 0.0015 -0.656493 -1.82924 0 -1.29435e-13 5.76066e-13 0 5.32605e-21 1.64008e-27
10345 345 0.0015 -0.0767633 -1.82871 0 -7.51402e-13 4.70589e-12 0 3.14298e-20 1.25818e-26
10279 343 0.0015 0.43066 -1.82968 0 6.51799e-13 3.25888e-12 0 1.24237e-20 1.08022e-26
6009 201 0.0015 0.515058 -1.82837 0 1.31028e-12 3.35934e-12 0 1.19907e-20 1.51543e-26
2665 89 0.0015 -0.660213 -1.82639 0 -1.25322e-12 4.92511e-13 0 0 1.12438e-27
10172 340 0.0015 -0.238704 -1.82673 0 -6.51226e-13 9.65679e-13 0 0 1.47271e-27
8052 269 0.0015 0.147835 -1.82652 0 -3.4595e-13 3.29704e-12 0 0 1.20986e-26
1496 50 0.0015 0.612523 -1.82772 0 -1.37315e-14 -2.24799e-12 0 0 6.72445e-27
10346 345 0.0015 -0.0774402 -1.82561 0 8.01695e-13 -5.12978e-12 0 1.57149e-20 1.36185e-26
1966 66 0.0015 0.0084364 -1.8257 0 -1.8538e-13 1.59414e-12 0 0 1.95648e-27
6544 219 0.0015 0.211567 -1.8253 0 -2.68939e-14 2.36906e-13 0 0 5.02277e-28
10209 341 0.0015 0.2837 -1.82493 0 5.15075e-14 -1.69895e-13 0 3.6872e-21 3.62599e-27
10280 343 0.0015 0.431381 -1.82573 0 -5.06409e-14 -4.99231e-13 0 1.24237e-20 1.4165e-28
1497 50 0.0015 0.614749 -1.8248 0 2.56689e-12 5.10265e-12 0 0 1.62585e-26
2666 89 0.0015 -0.663934 -1.82353 0 4.32144e-14 4.287e-13 0 0 2.02297e-27
6041 202 0.0015 -0.361448 -1.82377 0 -3.81971e-13 6.59317e-13 0 2.74394e-21 7.3555e-28
10347 345 0.0015 -0.078117 -1.8225 0 6.43999e-13 -2.43937e-12 0 0 1.71923e-26
2667 89 0.0015 -0.667655 -1.82068 0 1.45303e-13 -4.90316e-13 0 0 1.69788e-27
10173 340 0.0015 -0.243212 -1.82034 0 1.04592e-12 -1.55559e-12 0 0 4.33296e-27
1967 66 0.0015 0.00795626 -1.82092 0 2.52508e-13 -2.72807e-12 0 0 5.19892e-27
4775 160 0.0015 0.0775136 -1.82146 0 -2.93805e-16 -2.07183e-14 0 2.71488e-21 3.23789e-28
4537 152 0.0015 0.358127 -1.82159 0 1.04513e-13 -6.62225e-13 0 1.43176e-20 6.03669e-28
10281 343 0.0015 0.432102 -1.82177 0 9.72661e-15 9.39809e-13 0 2.48474e-20 5.54931e-28
6010 201 0.0015 0.518074 -1.8206 0 -1.12016e-12 -2.86378e-12 0 5.99535e-21 1.10043e-26
1498 50 0.0015 0.616976 -1.82189 0 -1.16616e-12 -1.33046e-12 0 0 1.19207e-26
8016 268 0.0015 -0.154154 -1.81981 0 -4.76376e-13 -1.32462e-12 0 1.90242e-21 4.11494e-27
10348 345 0.0015 -0.0787939 -1.81939 0 -1.8563e-12 8.76259e-12 0 0 3.56576e-26
8053 269 0.0015 0.147139 -1.81978 0 3.52121e-13 -3.18578e-12 0 0 1.17179e-26
6545 219 0.0015 0.211005 -1.81821 0 1.19389e-13 -1.31648e-12 0 0 1.89199e-27
10210 341 0.0015 0.282899 -1.8182 0 -3.35616e-13 2.4811e-12 0 0 6.02795e-27
1499 50 0.0015 0.619202 -1.81898 0 -9.68769e-13 -2.50864e-12 0 0 3.40511e-27
2668 89 0.0015 -0.671376 -1.81782 0 8.2178e-13 -4.45107e-13 0 0 5.87485e-28
6042 202 0.0015 -0.366251 -1.81604 0 4.91166e-13 -8.08926e-13 0 2.74394e-21 1.19669e-27
10349 345 0.0015 -0.0794707 -1.81629 0 1.20894e-12 -5.72901e-12 0 0 2.1614e-26
1968 66 0.0015 0.00747613 -1.81614 0 -2.86772e-13 3.37591e-12 0 0 7.66372e-27
10282 343 0.0015 0.432823 -1.81781 0 -1.72258e-13 -1.61504e-12 0 2.48474e-20 1.52443e-27
1500 50 0.0015 0.621428 -1.81607 0 4.59469e-13 1.17338e-12 0 0 1.49377e-27
2669 89 0.0015 -0.675097 -1.81497 0 1.96028e-13 -2.15047e-13 0 0 6.86085e-28
5941 199 0.0015 0.740778 -1.81551 0 -5.2492e-13 -2.12613e-12 0 0 1.27969e-26
2670 89 0.0015 -0.678818 -1.81211 0 -4.94607e-13 4.00097e-13 0 0 5.26926e-28
10174 340 0.0015 -0.24772 -1.81396 0 -1.10878e-12 1.62024e-12 0 0 4.57886e-27
10350 345 0.0015 -0.0801475 -1.81318 0 -2.15773e-13 9.89269e-13 0 0 9.05323e-28
4776 160 0.0015 0.0772524 -1.81226 0 -3.65702e-14 1.32402e-12 0 0 3.06166e-27
8054 269 0.0015 0.146443 -1.81304 0 -3.12649e-13 2.53097e-12 0 0 6.75178e-27
4538 152 0.0015 0.356779 -1.81297 0 -5.92577e-14 3.75666e-13 0 1.43176e-20 4.91567e-28
10283 343 0.0015 0.433544 -1.81386 0 5.7905e-13 2.98488e-12 0 3.72711e-20 5.83265e-27
6011 201 0.0015 0.521089 -1.81283 0 7.29105e-13 1.84149e-12 0 0 5.40882e-27
1969 66 0.0015 0.00699599 -1.81136 0 1.52792e-13 -2.15394e-12 0 0 4.30655e-27
6546 219 0.0015 0.210443 -1.81113 0 -1.49308e-13 1.73193e-12 0 0 2.98347e-27
10211 341 0.0015 0.282098 -1.81148 0 3.49918e-13 -2.78157e-12 0 0 7.40011e-27
6043 202 0.0015 -0.371054 -1.8083 0 -4.74148e-13 7.40556e-13 0 2.74394e-21 1.08587e-27
10284 343 0.0015 0.434265 -1.8099 0 -8.67349e-13 -3.70524e-12 0 3.72711e-20 8.13057e-27
10175 340 0.0015 -0.252228 -1.80757 0 2.34785e-13 -3.41739e-13 0 0 1.15793e-27
8017 268 0.0015 -0.149712 -1.80745 0 2.3021e-13 6.23166e-13 0 1.90242e-21 8.92368e-28