ITEM: TIMESTEP
30960
ITEM: NUMBER OF ATOMS
10500
ITEM: BOX BOUNDS pp pp pp
-1.0249999999999999e+00 1.0249999999999999e+00
-2.0000000000000000e+00 2.0000000000000000e+00
-5.0000000000000003e-02 5.0000000000000003e-02
ITEM: ATOMS id type radius x y z fx fy fz c_bendingE c_stretchingE
10321 345 0.0015 -0.0605191 -1.90326 0 -7.76334e-14 9.57274e-13 0 0 8.00113e-28
6031 202 0.0015 -0.31342 -1.90111 0 -4.37778e-13 6.9047e-13 0 2.74394e-21 1.69011e-27
10322 345 0.0015 -0.061196 -1.90016 0 -5.98548e-13 1.11005e-12 0 0 4.93506e-27
8041 269 0.0015 0.155487 -1.90065 0 -3.73491e-14 3.39834e-13 0 3.6872e-21 2.19949e-28
10261 343 0.0015 0.417684 -1.90089 0 -9.56841e-13 -5.00048e-12 0 0 2.89518e-26
1471 50 0.0015 0.556864 -1.90052 0 6.06679e-13 1.2498e-12 0 6.81478e-21 1.88705e-27
10323 345 0.0015 -0.0618728 -1.89705 0 1.31699e-12 -5.19304e-12 0 0 1.31242e-26
1951 66 0.0015 0.0156385 -1.89738 0 -1.05432e-13 8.89143e-13 0 0 1.06922e-27
10262 343 0.0015 0.418405 -1.89694 0 1.35857e-12 6.60665e-12 0 0 3.20009e-26
1472 50 0.0015 0.559091 -1.8976 0 -6.03008e-13 -1.49898e-12 0 1.36296e-20 1.92605e-27
2641 89 0.0015 -0.570912 -1.89491 0 5.99362e-13 -5.14843e-13 0 0 8.10871e-28
1473 50 0.0015 0.561317 -1.89469 0 1.88201e-12 1.71621e-12 0 1.36296e-20 5.47578e-27
2642 89 0.0015 -0.574633 -1.89206 0 -1.45378e-12 1.34826e-12 0 0 2.64098e-27
6032 202 0.0015 -0.318223 -1.89337 0 1.44804e-12 -2.30269e-12 0 5.48788e-21 1.08439e-26
10324 345 0.0015 -0.0625496 -1.89394 0 -4.03217e-13 3.26871e-12 0 1.57149e-20 8.99627e-27
1952 66 0.0015 0.0151583 -1.8926 0 4.98155e-13 -4.58077e-12 0 0 1.94562e-26
8042 269 0.0015 0.154791 -1.89391 0 2.80366e-13 -2.66845e-12 0 7.37441e-21 1.05355e-26
10263 343 0.0015 0.419126 -1.89298 0 -6.21427e-13 -2.03557e-12 0 1.24237e-20 3.28734e-27
3540 118 0.0015 0.637977 -1.89243 0 2.63959e-14 2.06403e-14 0 0 9.92058e-31
6061 203 0.0015 -0.387409 -1.89062 0 4.10506e-12 1.7782e-13 0 0 7.37002e-27
10325 345 0.0015 -0.0632265 -1.89084 0 -5.77072e-13 8.59519e-13 0 1.57149e-20 9.83959e-28
10231 342 0.0015 0.215 -1.89 0 5.3709e-13 0 0 0 5.52616e-29
10232 342 0.0015 0.21569 -1.89 0 -6.15979e-13 0 0 0 5.64472e-29
10233 342 0.0015 0.216379 -1.89 0 -1.12241e-12 0 0 0 2.77747e-28
10234 342 0.0015 0.217069 -1.89 0 2.89768e-12 0 0 0 8.27704e-28
10235 342 0.0015 0.217759 -1.89 0 -3.40456e-12 0 0 0 1.11041e-27
10236 342 0.0015 0.218448 -1.89 0 3.83899e-12 0 0 0 1.42907e-27
10237 342 0.0015 0.219138 -1.89 0 -5.36071e-12 0 0 0 2.86832e-27
10238 342 0.0015 0.219828 -1.89 0 6.59156e-12 0 0 0 4.16427e-27
10239 342 0.0015 0.220517 -1.89 0 -6.3749e-12 0 0 0 3.90438e-27
10240 342 0.0015 0.221207 -1.89 0 6.48423e-12 0 0 0 4.04662e-27
10241 342 0.0015 0.221897 -1.89 0 -7.06332e-12 0 0 0 4.77989e-27
10242 342 0.0015 0.222586 -1.89 0 5.86825e-12 0 0 0 3.46399e-27
10243 342 0.0015 0.223276 -1.89 0 -4.16542e-12 0 0 0 1.67622e-27
10244 342 0.0015 0.223966 -1.89 0 4.59985e-12 0 0 0 2.09139e-27
10245 342 0.0015 0.224655 -1.89 0 -6.66512e-12 0 0 0 4.4028e-27
10246 342 0.0015 0.225345 -1.89 0 6.66512e-12 0 0 0 4.4028e-27
10247 342 0.0015 0.226034 -1.89 0 -4.59985e-12 0 0 0 2.09139e-27
10248 342 0.0015 0.226724 -1.89 0 4.16542e-12 0 0 0 1.67622e-27
10249 342 0.0015 0.227414 -1.89 0 -5.86825e-12 0 0 0 3.46399e-27
10250 342 0.0015 0.228103 -1.89 0 7.06332e-12 0 0 0 4.77989e-27
10251 342 0.0015 0.228793 -1.89 0 -6.48423e-12 0 0 0 4.04662e-27
10252 342 0.0015 0.229483 -1.89 0 6.3749e-12 0 0 0 3.90438e-27
10253 342 0.0015 0.230172 -1.89 0 -6.59156e-12 0 0 0 4.16427e-27
10254 342 0.0015 0.230862 -1.89 0 5.36071e-12 0 0 0 2.86832e-27
10255 342 0.0015 0.231552 -1.89 0 -3.83899e-12 0 0 0 1.42907e-27
10256 342 0.0015 0.232241 -1.89 0 3.40456e-12 0 0 0 1.11041e-27
10257 342 0.0015 0.232931 -1.89 0 -2.89768e-12 0 0 0 8.27704e-28
10258 342 0.0015 0.233621 -1.89 0 1.12241e-12 0 0 0 2.77747e-28
10259 342 0.0015 0.23431 -1.89 0 6.15979e-13 0 0 0 5.64472e-29
10260 342 0.0015 0.235 -1.89 0 -5.3709e-13 0 0 0 5.52616e-29
6001 201 0.0015 0.490936 -1.89052 0 -3.8183e-13 -9.22172e-13 0 0 2.30482e-27
1474 50 0.0015 0.563543 -1.89178 0 -3.09653e-12 -1.48746e-12 0 1.36296e-20 6.01204e-27
3539 118 0.0015 0.640514 -1.89051 0 3.02038e-13 3.09425e-13 0 0 1.88678e-28
2643 89 0.0015 -0.578354 -1.8892 0 4.77897e-13 -7.3081e-13 0 0 2.00006e-27
6063 203 0.0015 -0.391043 -1.8889 0 1.46589e-11 2.29101e-12 0 0 4.58457e-26
6064 203 0.0015 -0.392859 -1.88804 0 -1.4655e-11 -1.43443e-12 0 0 4.76557e-26
6062 203 0.0015 -0.389226 -1.88976 0 -9.69693e-12 -1.9968e-12 0 0 1.75649e-26
10264 343 0.0015 0.419847 -1.88903 0 2.88263e-13 1.51509e-13 0 1.24237e-20 3.1438e-28
1475 50 0.0015 0.56577 -1.88887 0 8.63958e-13 -1.62051e-12 0 6.81478e-21 2.91002e-27
3538 118 0.0015 0.643052 -1.8886 0 -3.65596e-13 -5.0112e-13 0 0 2.03241e-28
2644 89 0.0015 -0.582074 -1.88635 0 -6.58568e-13 6.94401e-13 0 0 2.39338e-27
6066 203 0.0015 -0.396492 -1.88631 0 -9.29711e-13 9.8931e-13 0 2.48474e-20 4.10125e-27
6065 203 0.0015 -0.394676 -1.88717 0 7.89816e-12 1.36851e-13 0 0 1.53325e-26
7981 267 0.0015 -0.194876 -1.88635 0 3.57608e-13 6.15483e-15 0 0 7.62713e-29
10326 345 0.0015 -0.0639033 -1.88773 0 -4.19656e-13 2.05267e-12 0 1.57149e-20 9.7216e-27
1953 66 0.0015 0.0146782 -1.88782 0 -2.9675e-13 2.7197e-12 0 0 1.96596e-26
8043 269 0.0015 0.154095 -1.88717 0 -5.81436e-13 5.63641e-12 0 1.10616e-20 3.11216e-26
3537 118 0.0015 0.645589 -1.88668 0 -3.15941e-12 -2.25906e-12 0 0 1.42541e-26
6068 203 0.0015 -0.400126 -1.88459 0 -2.76647e-12 -5.11201e-12 0 2.48474e-20 1.06213e-26
6067 203 0.0015 -0.398309 -1.88545 0 -3.05575e-12 3.1302e-12 0 2.48474e-20 5.55409e-27
6033 202 0.0015 -0.323025 -1.88564 0 -1.86067e-12 2.98536e-12 0 5.48788e-21 1.57507e-26
7983 267 0.0015 -0.199527 -1.8846 0 -2.96482e-14 5.20699e-12 0 0 2.00406e-27
7982 267 0.0015 -0.197202 -1.88548 0 -7.81491e-13 -1.62268e-12 0 0 9.7505e-29
10327 345 0.0015 -0.0645802 -1.88463 0 2.3234e-12 -9.47586e-12 0 0 4.72884e-26
10265 343 0.0015 0.420568 -1.88507 0 1.73994e-13 1.80889e-12 0 1.24237e-20 2.75867e-27
1476 50 0.0015 0.567996 -1.88596 0 -1.39156e-13 1.65907e-12 0 1.36296e-20 2.41504e-27
3536 118 0.0015 0.648126 -1.88476 0 6.5847e-12 5.38733e-12 0 0 3.20091e-26
2645 89 0.0015 -0.585795 -1.88349 0 1.79104e-12 -1.26609e-12 0 5.32605e-21 3.2445e-27
6071 203 0.0015 -0.405575 -1.882 0 1.19981e-12 -2.17978e-12 0 4.96948e-20 1.99163e-27
6070 203 0.0015 -0.403759 -1.88287 0 -2.79623e-12 1.18383e-12 0 2.48474e-20 4.70404e-27
6069 203 0.0015 -0.401942 -1.88373 0 7.52057e-12 1.54404e-12 0 0 1.05348e-26
7985 267 0.0015 -0.204179 -1.88284 0 4.20572e-13 4.98355e-13 0 1.00459e-20 6.4138e-28
7984 267 0.0015 -0.201853 -1.88372 0 4.0231e-13 -5.32068e-12 0 1.00459e-20 2.20265e-27
1954 66 0.0015 0.0141981 -1.88304 0 -5.37254e-13 5.128e-12 0 0 2.4576e-26
6002 201 0.0015 0.493952 -1.88275 0 5.99223e-13 1.37117e-12 0 0 2.87714e-27
1477 50 0.0015 0.570222 -1.88304 0 2.51146e-13 -8.62442e-13 0 1.36296e-20 7.53961e-28
3535 118 0.0015 0.650663 -1.88285 0 -5.20657e-12 -4.70204e-12 0 0 2.33014e-26
2646 89 0.0015 -0.589516 -1.88064 0 4.27017e-13 -3.88673e-13 0 1.06521e-20 3.80071e-27
6073 203 0.0015 -0.409209 -1.88028 0 6.43519e-12 3.36979e-12 0 2.48474e-20 5.66052e-27
6072 203 0.0015 -0.407392 -1.88114 0 -3.75418e-12 3.13636e-13 0 4.96948e-20 3.48855e-27
7988 267 0.0015 -0.211156 -1.8802 0 4.26026e-13 2.41711e-12 0 2.00918e-20 9.12809e-29
7987 267 0.0015 -0.208831 -1.88108 0 -5.42924e-13 -3.4354e-12 0 1.00459e-20 1.72922e-28
7986 267 0.0015 -0.206505 -1.88196 0 -4.02329e-14 3.12265e-12 0 2.00918e-20 5.11583e-28
8011 268 0.0015 -0.176367 -1.88159 0 2.45214e-13 6.89033e-13 0 0 1.95096e-27
10328 345 0.0015 -0.065257 -1.88152 0 -2.57633e-12 1.04194e-11 0 0 5.35517e-26
8044 269 0.0015 0.1534 -1.88043 0 6.02561e-13 -5.99795e-12 0 1.10616e-20 3.45562e-26
10266 343 0.0015 0.421289 -1.88111 0 -7.31128e-13 -4.09568e-12 0 0 1.02962e-26
1478 50 0.0015 0.572449 -1.88013 0 4.91995e-13 1.79522e-12 0 1.36296e-20 1.5198e-27
3534 118 0.0015 0.653201 -1.88093 0 1.99203e-14 1.85309e-13 0 0 1.05122e-26
10292 344 0.0015 -0.465124 -1.8785 0 -3.15205e-12 1.88506e-12 0 0 8.57981e-27
10291 344 0.0015 -0.4623 -1.87941 0 2.98386e-12 -1.19159e-12 0 0 8.46564e-27
6074 203 0.0015 -0.411025 -1.87942 0 -1.02076e-11 -2.88269e-12 0 0 1.96046e-26
6075 203 0.0015 -0.412842 -1.87856 0 5.89332e-12 -1.70514e-13 0 0 1.54617e-26
7990 267 0.0015 -0.215808 -1.87844 0 2.86458e-12 1.01183e-12 0 1.00459e-20 2.11597e-27
7989 267 0.0015 -0.213482 -1.87932 0 -1.96778e-12 -1.01899e-12 0 1.00459e-20 1.75511e-27
10329 345 0.0015 -0.0659339 -1.87841 0 1.32002e-12 -5.14527e-12 0 0 1.62498e-26
1955 66 0.0015 0.0137179 -1.87827 0 3.90975e-13 -3.25762e-12 0 0 2.43816e-26
10201 341 0.0015 0.290108 -1.87875 0 1.59775e-13 -1.37808e-12 0 0 3.62193e-27
3533 118 0.0015 0.655738 -1.87902 0 7.76041e-12 6.11402e-12 0 1.57149e-20 5.46872e-26
2647 89 0.0015 -0.593237 -1.87778 0 -3.40095e-12 2.28728e-12 0 1.59781e-20 1.17905e-26
10294 344 0.0015 -0.470773 -1.87669 0 -2.26884e-12 2.4018e-12 0 0 3.92829e-27
10293 344 0.0015 -0.467948 -1.87759 0 7.81759e-13 -1.75875e-12 0 0 7.96538e-28
6077 203 0.0015 -0.416475 -1.87683 0 -1.08196e-12 -5.07738e-12 0 0 7.59965e-27
6076 203 0.0015 -0.414658 -1.87769 0 3.19396e-12 2.53001e-12 0 0 2.11064e-27
6034 202 0.0015 -0.327828 -1.87791 0 1.23565e-12 -1.98763e-12 0 2.74394e-21 7.92708e-27
7992 267 0.0015 -0.22046 -1.87668 0 -1.98686e-12 1.39397e-12 0 1.00459e-20 2.53425e-27
7991 267 0.0015 -0.218134 -1.87756 0 3.69909e-13 -2.17941e-12 0 0 2.72846e-27
10267 343 0.0015 0.42201 -1.87716 0 1.20348e-12 6.21245e-12 0 1.24237e-20 2.30453e-26
1479 50 0.0015 0.574675 -1.87722 0 5.24484e-13 -2.5879e-13 0 1.36296e-20 1.91496e-27
3532 118 0.0015 0.658275 -1.8771 0 -9.09064e-12 -6.14192e-12 0 3.92872e-20 6.02381e-26
2648 89 0.0015 -0.596958 -1.87493 0 3.45634e-12 -2.00294e-12 0 1.06521e-20 1.13206e-26
10296 344 0.0015 -0.476421 -1.87487 0 5.93493e-14 7.00584e-13 0 1.68424e-20 1.97462e-28
10295 344 0.0015 -0.473597 -1.87578 0 1.2537e-12 -1.74246e-12 0 1.68424e-20 3.30084e-27
6080 203 0.0015 -0.421925 -1.87425 0 -2.53416e-12 -2.54812e-12 0 4.96948e-20 4.35131e-28
6079 203 0.0015 -0.420108 -1.87511 0 4.51647e-12 4.67481e-13 0 4.96948e-20 5.72013e-27
6078 203 0.0015 -0.418291 -1.87597 0 -4.88587e-12 4.2662e-12 0 2.48474e-20 1.08842e-26
7995 267 0.0015 -0.227437 -1.87404 0 -1.26948e-12 3.20567e-12 0 2.00918e-20 1.87822e-27
7994 267 0.0015 -0.225111 -1.87492 0 2.06543e-12 -1.66489e-12 0 3.01377e-20 2.19491e-27
7993 267 0.0015 -0.222785 -1.8758 0 -6.24613e-13 4.55664e-13 0 2.00918e-20 1.25226e-27
10330 345 0.0015 -0.0666107 -1.87531 0 -7.61271e-13 3.72431e-12 0 1.57149e-20 7.28152e-27
6003 201 0.0015 0.496967 -1.87498 0 -4.0696e-13 -8.91314e-13 0 0 1.10773e-27
1480 50 0.0015 0.576901 -1.87431 0 -2.58485e-12 -3.15292e-12 0 6.81478e-21 1.05417e-26
3531 118 0.0015 0.660812 -1.87519 0 2.35596e-12 -4.4418e-14 0 3.92872e-20 1.27929e-26
2649 89 0.0015 -0.600679 -1.87207 0 -1.78763e-12 6.22035e-13 0 5.32605e-21 2.59195e-27
10299 344 0.0015 -0.484893 -1.87215 0 -2.98837e-12 -2.46759e-13 0 0 6.1718e-27
10298 344 0.0015 -0.482069 -1.87306 0 -1.82803e-12 8.55124e-13 0 0 3.41331e-27
10297 344 0.0015 -0.479245 -1.87396 0 2.28009e-12 -9.1591e-13 0 1.68424e-20 3.55496e-27
6082 203 0.0015 -0.425558 -1.87252 0 1.44225e-12 1.15012e-12 0 2.48474e-20 1.83894e-28
6081 203 0.0015 -0.423741 -1.87338 0 1.47854e-13 3.27628e-13 0 2.48474e-20 2.02357e-28
7997 267 0.0015 -0.232089 -1.87228 0 4.79784e-13 1.6146e-12 0 2.00918e-20 7.34228e-29
7996 267 0.0015 -0.229763 -1.87316 0 6.86556e-14 -3.5862e-12 0 2.00918e-20 8.16048e-28
10331 345 0.0015 -0.0672875 -1.8722 0 5.57061e-13 -4.16403e-12 0 1.57149e-20 8.22189e-27
1956 66 0.0015 0.0132378 -1.87349 0 2.55825e-13 -3.14789e-12 0 5.20104e-21 7.88465e-27
8045 269 0.0015 0.152704 -1.87369 0 -4.75859e-13 4.95482e-12 0 7.37441e-21 2.34852e-26
10202 341 0.0015 0.289307 -1.87202 0 -3.21897e-13 2.80219e-12 0 3.6872e-21 7.4879e-27
4531 152 0.0015 0.366216 -1.8733 0 1.02673e-13 -6.67405e-13 0 0 1.1049e-27
10268 343 0.0015 0.422731 -1.8732 0 -1.1454e-12 -5.52041e-12 0 2.48474e-20 1.95472e-26
3530 118 0.0015 0.66335 -1.87327 0 9.46661e-13 2.48676e-12 0 2.35723e-20 2.63824e-27
10301 344 0.0015 -0.490541 -1.87033 0 -3.51064e-12 -1.57787e-12 0 0 3.39199e-27
10300 344 0.0015 -0.487717 -1.87124 0 4.7772e-12 8.62715e-13 0 0 8.14454e-27
6084 203 0.0015 -0.429191 -1.8708 0 -4.5549e-12 5.8677e-12 0 2.48474e-20 1.3164e-26
6083 203 0.0015 -0.427374 -1.87166 0 1.30097e-12 -2.02402e-12 0 2.48474e-20 3.36279e-27
6035 202 0.0015 -0.332631 -1.87017 0 -8.25488e-13 1.30141e-12 0 0 3.01317e-27
7999 267 0.0015 -0.23674 -1.87052 0 1.88687e-12 1.18044e-14 0 1.00459e-20 1.22153e-27
7998 267 0.0015 -0.234415 -1.8714 0 -7.58876e-13 3.19795e-15 0 2.00918e-20 2.26748e-28
1481 50 0.0015 0.579128 -1.8714 0 1.60537e-12 2.42202e-12 0 6.81478e-21 9.49604e-27
3529 118 0.0015 0.665887 -1.87136 0 -7.67699e-13 -1.33436e-12 0 0 8.91408e-28
2650 89 0.0015 -0.6044 -1.86922 0 1.06099e-12 -2.12363e-13 0 0 6.1524e-28
10303 344 0.0015 -0.49619 -1.86852 0 -1.78815e-12 -9.36093e-13 0 0 1.33403e-27
10302 344 0.0015 -0.493366 -1.86943 0 3.06207e-12 1.11181e-12 0 0 2.73311e-27
6087 203 0.0015 -0.434641 -1.86821 0 1.16838e-12 3.11843e-12 0 0 2.89373e-28
6085 203 0.0015 -0.431008 -1.86994 0 3.16517e-12 -6.79985e-12 0 0 1.12554e-26
6086 203 0.0015 -0.432824 -1.86908 0 -7.23336e-13 6.64258e-13 0 0 1.59452e-27
8001 267 0.0015 -0.241392 -1.86876 0 -4.97636e-13 -2.13883e-12 0 1.00459e-20 4.73442e-29
8000 267 0.0015 -0.239066 -1.86964 0 -1.39034e-12 4.81479e-13 0 0 1.05937e-27
8012 268 0.0015 -0.171924 -1.86923 0 3.17195e-14 7.61593e-14 0 0 4.36629e-27
10332 345 0.0015 -0.0679644 -1.86909 0 6.05773e-13 -1.11069e-12 0 3.14298e-20 9.03766e-27
1957 66 0.0015 0.0127576 -1.86871 0 2.18277e-14 -8.24144e-14 0 1.04021e-20 1.41298e-26
10269 343 0.0015 0.423451 -1.86924 0 7.63916e-13 3.36498e-12 0 3.72711e-20 6.72334e-27
1482 50 0.0015 0.581354 -1.86848 0 4.45469e-12 5.22654e-12 0 0 4.58222e-26
3528 118 0.0015 0.668424 -1.86944 0 1.96646e-12 8.88198e-13 0 0 2.10373e-27
2651 89 0.0015 -0.608121 -1.86636 0 -2.99113e-13 -9.49948e-15 0 0 4.30997e-28
10305 344 0.0015 -0.501838 -1.8667 0 3.58629e-12 -1.85972e-12 0 0 9.65903e-27
10304 344 0.0015 -0.499014 -1.86761 0 -1.28033e-13 1.1127e-12 0 0 3.31057e-28
6089 203 0.0015 -0.438274 -1.86649 0 -4.43308e-12 -1.09375e-12 0 0 5.72098e-27
6088 203 0.0015 -0.436457 -1.86735 0 -5.02798e-14 -1.22472e-13 0 0 1.38525e-28
8004 267 0.0015 -0.248369 -1.86612 0 4.05526e-13 1.57142e-12 0 1.00459e-20 1.72246e-27
8003 267 0.0015 -0.246044 -1.867 0 2.07158e-12 -2.40532e-12 0 1.00459e-20 2.73684e-27
8002 267 0.0015 -0.243718 -1.86788 0 -5.76481e-13 3.05051e-12 0 1.00459e-20 1.74051e-27
8046 269 0.0015 0.152008 -1.86695 0 1.20122e-13 -1.52222e-12 0 3.6872e-21 1.07878e-26
6004 201 0.0015 0.499982 -1.86721 0 2.63774e-13 6.77589e-13 0 0 6.75699e-28
3527 118 0.0015 0.670962 -1.86752 0 6.17567e-14 1.21388e-12 0 0 5.56824e-27
10307 344 0.0015 -0.507486 -1.86489 0 6.00693e-12 -2.23359e-12 0 0 1.83199e-26
10306 344 0.0015 -0.504662 -1.8658 0 -7.00981e-12 2.70664e-12 0 0 2.34265e-26
6090 203 0.0015 -0.440091 -1.86563 0 3.47942e-12 -8.64947e-14 0 0 5.65034e-27
8006 267 0.0015 -0.253021 -1.86436 0 2.33058e-12 1.04481e-12 0 2.00918e-20 1.18649e-27
8005 267 0.0015 -0.250695 -1.86524 0 -2.51658e-12 -1.76071e-12 0 1.00459e-20 1.06993e-27
10333 345 0.0015 -0.0686412 -1.86599 0 -1.39198e-12 6.12069e-12 0 3.92872e-20 1.7615e-26
10203 341 0.0015 0.288506 -1.8653 0 5.08871e-13 -4.3142e-12 0 7.37441e-21 1.98109e-26
4532 152 0.0015 0.364868 -1.86469 0 -2.58786e-13 1.64527e-12 0 0 3.48105e-27
10270 343 0.0015 0.424172 -1.86529 0 -4.27345e-13 -2.10212e-12 0 3.72711e-20 3.03264e-27
1483 50 0.0015 0.58358 -1.86557 0 -6.17961e-12 -7.1222e-12 0 0 5.32472e-26
3526 118 0.0015 0.673499 -1.86561 0 -4.59262e-12 -4.27334e-12 0 0 1.89514e-26
2652 89 0.0015 -0.611842 -1.86351 0 -1.1597e-12 6.65494e-13 0 5.32605e-21 1.53717e-27
10310 344 0.0015 -0.515959 -1.86217 0 1.90455e-12 -1.55172e-12 0 0 2.4004e-27
10309 344 0.0015 -0.513134 -1.86307 0 -1.36969e-12 6.79353e-13 0 0 9.41725e-28
10308 344 0.0015 -0.51031 -1.86398 0 -1.36035e-12 7.22331e-13 0 0 4.70723e-27
6036 202 0.0015 -0.337434 -1.86244 0 7.27775e-13 -1.13418e-12 0 2.74394e-21 2.39777e-27
8008 267 0.0015 -0.257673 -1.8626 0 3.97786e-12 -3.46628e-12 0 2.00918e-20 9.93778e-27
8007 267 0.0015 -0.255347 -1.86348 0 -4.08921e-12 2.2333e-12 0 2.00918e-20 9.35529e-27
10334 345 0.0015 -0.0693181 -1.86288 0 1.53566e-12 -7.40889e-12 0 5.50021e-20 2.54271e-26
1958 66 0.0015 0.0122775 -1.86393 0 -6.15174e-13 6.22032e-12 0 1.04021e-20 2.76965e-26
1484 50 0.0015 0.585807 -1.86266 0 8.27261e-13 3.38753e-13 0 0 1.12529e-26
3525 118 0.0015 0.676036 -1.86369 0 4.59262e-12 4.27334e-12 0 0 1.89514e-26
2653 89 0.0015 -0.615563 -1.86065 0 1.80564e-12 -9.4331e-13 0 2.13042e-20 2.6292e-27
10312 344 0.0015 -0.521607 -1.86035 0 6.13021e-12 -3.42177e-12 0 0 1.95346e-26
10311 344 0.0015 -0.518783 -1.86126 0 -4.50811e-12 2.5402e-12 0 0 1.22537e-26
8010 267 0.0015 -0.262324 -1.86085 0 -9.16964e-13 3.03066e-13 0 0 6.43052e-28
8009 267 0.0015 -0.259998 -1.86172 0 -1.38168e-13 9.66808e-13 0 1.00459e-20 2.06757e-27
8047 269 0.0015 0.151313 -1.86021 0 2.70518e-13 -2.4956e-12 0 3.6872e-21 6.89697e-27
10271 343 0.0015 0.424893 -1.86133 0 2.92635e-13 1.70381e-12 0 2.48474e-20 1.80594e-27
3524 118 0.0015 0.678573 -1.86178 0 -6.17567e-14 -1.21388e-12 0 0 5.56824e-27
10314 344 0.0015 -0.527255 -1.85854 0 3.25151e-12 -3.52142e-12 0 0 8.21868e-27
10313 344 0.0015 -0.524431 -1.85944 0 -5.32857e-12 3.76639e-12 0 0 1.60533e-26
10335 345 0.0015 -0.0699949 -1.85978 0 -1.55713e-12 6.62179e-12 0 3.92872e-20 2.12301e-26
1959 66 0.0015 0.0117974 -1.85915 0 7.87258e-13 -7.79359e-12 0 5.20104e-21 4.09314e-26
4771 160 0.0015 0.0785585 -1.85825 0 2.58434e-14 -8.52935e-13 0 0 1.86108e-27
10204 341 0.0015 0.287705 -1.85857 0 -5.41218e-13 4.31546e-12 0 7.37441e-21 1.98383e-26
6005 201 0.0015 0.502997 -1.85945 0 2.87661e-13 6.20891e-13 0 0 2.13842e-27
1485 50 0.0015 0.588033 -1.85975 0 2.20048e-12 2.76829e-12 0 0 6.42e-27
3523 118 0.0015 0.681111 -1.85986 0 -1.96646e-12 -8.88198e-13 0 0 2.10373e-27
2654 89 0.0015 -0.619284 -1.8578 0 1.15668e-12 -8.68467e-13 0 2.66302e-20 8.70699e-27
10316 344 0.0015 -0.532903 -1.85672 0 -4.72013e-13 -2.49147e-12 0 0 4.74389e-28
10315 344 0.0015 -0.530079 -1.85763 0 -9.97093e-13 3.3032e-12 0 0 1.74098e-27
8013 268 0.0015 -0.167482 -1.85688 0 -7.73942e-13 -2.15631e-12 0 0 1.03747e-26
10336 345 0.0015 -0.0706718 -1.85667 0 2.3656e-13 -1.492e-13 0 1.57149e-20 1.22145e-26
4533 152 0.0015 0.36352 -1.85607 0 1.4195e-13 -8.29552e-13 0 5.72705e-21 2.42974e-27
10272 343 0.0015 0.425614 -1.85738 0 -7.35723e-13 -3.95928e-12 0 2.48474e-20 1.08735e-26
1486 50 0.0015 0.59026 -1.85684 0 -2.20048e-12 -2.76829e-12 0 0 6.42e-27
3522 118 0.0015 0.683648 -1.85795 0 7.67699e-13 1.33436e-12 0 0 8.91408e-28
3521 118 0.0015 0.686185 -1.85603 0 -9.46661e-13 -2.48676e-12 0 2.35723e-20 2.63824e-27
2655 89 0.0015 -0.623004 -1.85494 0 -4.38802e-12 2.63125e-12 0 2.13042e-20 1.68814e-26
10318 344 0.0015 -0.538552 -1.85491 0 -4.32691e-12 4.01432e-12 0 0 1.29391e-26
10317 344 0.0015 -0.535727 -1.85581 0 2.16979e-12 -4.13545e-13 0 0 2.88075e-27
6037 202 0.0015 -0.342237 -1.85471 0 -3.92699e-13 6.05213e-13 0 2.74394e-21 8.05718e-28
1960 66 0.0015 0.0113172 -1.85437 0 -5.21665e-13 5.20976e-12 0 0 2.28489e-26
3520 118 0.0015 0.688722 -1.85412 0 -2.35596e-12 4.4418e-14 0 3.92872e-20 1.27929e-26
2656 89 0.0015 -0.626725 -1.85209 0 2.5285e-12 -9.49715e-13 0 5.32605e-21 9.37659e-27
10320 344 0.0015 -0.5442 -1.85309 0 -3.12597e-12 2.02893e-12 0 0 1.06597e-26
10319 344 0.0015 -0.541376 -1.854 0 5.91532e-12 -4.82851e-12 0 0 2.0823e-26
10337 345 0.0015 -0.0713486 -1.85356 0 5.59844e-13 -2.29599e-12 0 0 5.67669e-27
8048 269 0.0015 0.150617 -1.85348 0 -2.44671e-13 2.41706e-12 0 7.37441e-21 6.68188e-27
10273 343 0.0015 0.426335 -1.85342 0 5.81302e-13 3.4067e-12 0 1.24237e-20 9.81893e-27
1487 50 0.0015 0.592486 -1.85392 0 -8.27261e-13 -3.38753e-13 0 0 1.12529e-26
3519 118 0.0015 0.69126 -1.8522 0 9.09064e-12 6.14192e-12 0 3.92872e-20 6.02381e-26
10338 345 0.0015 -0.0720254 -1.85046 0 3.22133e-13 -2.94126e-12 0 0 6.82527e-27
10205 341 0.0015 0.286904 -1.85184 0 8.10673e-14 -1.58598e-13 0 3.6872e-21 6.93477e-27
6006 201 0.0015 0.506013 -1.85168 0 -1.22587e-12 -3.02714e-12 0 0 1.46349e-26
1488 50 0.0015 0.594712 -1.85101 0 6.17961e-12 7.1222e-12 0 0 5.32472e-26
3518 118 0.0015 0.693797 -1.85028 0 -7.76041e-12 -6.11402e-12 0 1.57149e-20 5.46872e-26
2657 89 0.0015 -0.630446 -1.84923 0 9.13896e-13 -1.60482e-12 0 5.32605e-21 3.3689e-27
1961 66 0.0015 0.0108371 -1.84959 0 1.94741e-13 -2.25607e-12 0 0 3.50466e-27
4772 160 0.0015 0.0782973 -1.84905 0 -6.80207e-14 2.26388e-12 0 0 6.95372e-27
10274 343 0.0015 0.427056 -1.84946 0 -1.79329e-13 -1.47817e-12 0 1.24237e-20 1.32562e-27
1489 50 0.0015 0.596939 -1.8481 0 -4.45469e-12 -5.22654e-12 0 0 4.58222e-26
3517 118 0.0015 0.696334 -1.84837 0 -1.99203e-14 -1.85309e-13 0 0 1.05122e-26
2658 89 0.0015 -0.634167 -1.84638 0 -2.09028e-12 2.3153e-12 0 5.32605e-21 6.14392e-27
6038 202 0.0015 -0.34704 -1.84697 0 1.54329e-13 -2.09389e-13 0 2.74394e-21 1.03237e-28
10339 345 0.0015 -0.0727023 -1.84735 0 5.38721e-14 9.35595e-13 0 0 9.8966e-27
8049 269 0.0015 0.149922 -1.84674 0 2.06414e-13 -1.93114e-12 0 1.10616e-20 3.89669e-27
6541 219 0.0015 0.213251 -1.84656 0 -1.92371e-14 2.94901e-13 0 0 1.7243e-28
4534 152 0.0015 0.362172 -1.84745 0 5.4653e-14 -4.41778e-13 0 1.14541e-20 2.66191e-28
3516 118 0.0015 0.698871 -1.84645 0 5.20657e-12 4.70204e-12 0 0 2.33014e-26
8014 268 0.0015 -0.163039 -1.84452 0 8.71412e-13 2.44055e-12 0 1.90242e-21 1.24876e-26
10340 345 0.0015 -0.0733791 -1.84424 0 -1.2749e-12 5.6019e-12 0 0 1.63392e-26
1962 66 0.0015 0.010357 -1.84481 0 -4.58982e-14 8.8467e-13 0 0 1.22034e-27
10206 341 0.0015 0.286103 -1.84511 0 2.00656e-13 -2.2948e-12 0 0 5.04236e-27
10275 343 0.0015 0.427777 -1.84551 0 6.01209e-13 3.37387e-12 0 0 7.8763e-27
1490 50 0.0015 0.599165 -1.84519 0 -1.60537e-12 -2.42202e-12 0 6.81478e-21 9.49604e-27
3515 118 0.0015 0.701409 -1.84454 0 -6.5847e-12 -5.38733e-12 0 0 3.20091e-26
2659 89 0.0015 -0.637888 -1.84352 0 8.23786e-13 -1.09232e-12 0 5.32605e-21 2.81431e-27
6007 201 0.0015 0.509028 -1.84391 0 1.679e-12 4.25687e-12 0 5.99535e-21 2.42456e-26
1491 50 0.0015 0.601391 -1.84228 0 2.58485e-12 3.15292e-12 0 6.81478e-21 1.05417e-26
3514 118 0.0015 0.703946 -1.84262 0 3.15941e-12 2.25906e-12 0 0 1.42541e-26
2660 89 0.0015 -0.641609 -1.84066 0 -2.02666e-13 5.53893e-13 0 0 5.64246e-28
10341 345 0.0015 -0.074056 -1.84114 0 8.57643e-13 -4.28148e-12 0 1.57149e-20 1.34581e-26
1963 66 0.0015 0.00987681 -1.84004 0 -1.95933e-13 1.5194e-12 0 0 2.85919e-27
10276 343 0.0015 0.428498 -1.84155 0 -6.01209e-13 -3.37387e-12 0 0 7.8763e-27
3513 118 0.0015 0.706483 -1.84071 0 3.65596e-13 5.0112e-13 0 0 2.03241e-28
6039 202 0.0015 -0.351842 -1.83924 0 -2.84404e-13 3.96094e-13 0 2.74394e-21 4.51796e-28
10342 345 0.0015 -0.0747328 -1.83803 0 4.82554e-13 -1.49984e-12 0 1.57149e-20 3.96833e-27
4773 160 0.0015 0.0780361 -1.83985 0 4.36065e-14 -1.4131e-12 0 2.71488e-21 5.09266e-27
8050 269 0.0015 0.149226 -1.84 0 -1.55139e-13 1.28379e-12 0 1.10616e-20 3.05968e-27
6542 219 0.0015 0.21269 -1.83947 0 -6.04236e-14 4.98183e-13 0 0 1.42644e-27
10207 341 0.0015 0.285302 -1.83839 0 -1.32112e-13 1.59767e-12 0 0 2.61439e-27
4535 152 0.0015 0.360823 -1.83883 0 1.162e-13 -7.05687e-13 0 1.14541e-20 2.69116e-27
1492 50 0.0015 0.603618 -1.83936 0 -5.24484e-13 2.5879e-13 0 1.36296e-20 1.91496e-27
3512 118 0.0015 0.70902 -1.83879 0 -3.02038e-13 -3.09425e-13 0 0 1.88678e-28
2661 89 0.0015 -0.64533 -1.83781 0 1.77431e-12 -1.86557e-12 0 0 5.24647e-27
10277 343 0.0015 0.429219 -1.8376 0 1.79329e-13 1.47817e-12 0 1.24237e-20 1.32562e-27
6008 201 0.0015 0.512043 -1.83614 0 -9.60365e-13 -2.50035e-12 0 5.99535e-21 1.20549e-26
1493 50 0.0015 0.605844 -1.83645 0 -4.91995e-13 -1.79522e-12 0 1.36296e-20 1.5198e-27
3511 118 0.0015 0.711558 -1.83688 0 -2.63959e-14 -2.06403e-14 0 0 9.92058e-31
2662 89 0.0015 -0.649051 -1.83495 0 1.82813e-13 3.34737e-13 0 0 9.13202e-27
10343 345 0.0015 -0.0754097 -1.83493 0 -8.89155e-13 2.70708e-12 0 1.57149e-20 4.28064e-27
1964 66 0.0015 0.00939668 -1.83526 0 -8.28571e-15 6.67598e-13 0 0 8.89083e-27
2663 89 0.0015 -0.652772 -1.8321 0 -2.78377e-12 1.98486e-12 0 0 7.65186e-27
10171 340 0.0015 -0.234195 -1.83312 0 -4.40928e-13 6.37944e-13 0 0 1.30585e-27
8015 268 0.0015 -0.158597 -1.83216 0 -5.04792e-13 -1.41333e-12 0 1.90242e-21 5.07323e-27
8051 269 0.0015 0.14853 -1.83326 0 1.88299e-14 5.8481e-14 0 7.37441e-21 1.09704e-29
6543 219 0.0015 0.212128 -1.83239 0 1.5775e-13 -1.38471e-12 0 0 1.95531e-27
10278 343 0.0015 0.429939 -1.83364 0 -5.81302e-13 -3.4067e-12 0 1.24237e-20 9.81893e-27
1494 50 0.0015 0.60807 -1.83354 0 -2.51146e-13 8.62442e-13 0 1.36296e-20 7.53961e-28
6040 202 0.0015 -0.356645 -1.83151 0 2.31296e-13 -3.12396e-13 0 5.48788e-21 4.41736e-28
10344 345 0.0015 -0.0760865 -1.83182 0 1.20207e-12 -3.41606e-12 0 0 7.55477e-27
1965 66 0.0015 0.00891654 -1.83048 0 1.58472e-13 -2.27441e-12 0 0 6.06861e-27
4774 160 0.0015 0.0777749 -1.83066 0 2.55655e-14 -1.06156e-12 0 5.42976e-21 2.89385e-27
10208 341 0.0015 0.284501 -1.83166 0 1.28266e-13 -1.25547e-12 0 0 1.51172e-27
4536 152 0.0015 0.359475 -1.83021 0 -4.31463e-13 2.78176e-12 0 5.72705e-21 1.03617e-26
1495 50 0.0015 0.610297 -1.83063 0 1.39156e-13 -1.65907e-12 0 1.36296e-20 2.41504e-27
2664 89 0.0015 -0.656493 -1.82924 0 -2.91372e-13 -1.20517e-13 0 0 7.13796e-27
10345 345 0.0015 -0.0767633 -1.82871 0 -2.15689e-12 7.67087e-12 0 0 3.02973e-26
10279 343 0.0015 0.43066 -1.82968 0 7.35723e-13 3.95928e-12 0 2.48474e-20 1.08735e-26
6009 201 0.0015 0.515058 -1.82837 0 -4.31663e-13 -9.99905e-13 0 1.19907e-20 5.84566e-27
2665 89 0.0015 -0.660213 -1.82639 0 2.74839e-12 -1.52162e-12 0 0 6.37061e-27
10172 340 0.0015 -0.238704 -1.82673 0 1.03532e-13 -1.54008e-13 0 0 2.06161e-27
8052 269 0.0015 0.147835 -1.82652 0 -1.4486e-13 1.1316e-12 0 3.6872e-21 2.78709e-27
1496 50 0.0015 0.612523 -1.82772 0 -8.63958e-13 1.62051e-12 0 6.81478e-21 2.91002e-27
10346 345 0.0015 -0.0774402 -1.82561 0 2.62021e-12 -1.03931e-11 0 0 5.07604e-26
1966 66 0.0015 0.0084364 -1.8257 0 5.52334e-14 -1.22196e-13 0 5.20104e-21 1.34152e-28
6544 219 0.0015 0.211567 -1.8253 0 -1.72487e-13 1.41472e-12 0 3.51396e-21 2.05503e-27
10209 341 0.0015 0.2837 -1.82493 0 -9.34807e-14 6.45654e-13 0 3.6872e-21 9.01098e-28
10280 343 0.0015 0.431381 -1.82573 0 -2.92635e-13 -1.70381e-12 0 2.48474e-20 1.80594e-27
1497 50 0.0015 0.614749 -1.8248 0 3.09653e-12 1.48746e-12 0 1.36296e-20 6.01204e-27
2666 89 0.0015 -0.663934 -1.82353 0 -2.13287e-12 1.06612e-12 0 1.59781e-20 3.67881e-27
6041 202 0.0015 -0.361448 -1.82377 0 5.5006e-14 -1.38648e-13 0 5.48788e-21 3.69969e-29
10347 345 0.0015 -0.078117 -1.8225 0 -1.80846e-12 7.98078e-12 0 0 3.34759e-26
2667 89 0.0015 -0.667655 -1.82068 0 4.09238e-13 1.99185e-13 0 2.13042e-20 1.97573e-27
10173 340 0.0015 -0.243212 -1.82034 0 3.34031e-13 -5.16134e-13 0 0 7.57043e-28
1967 66 0.0015 0.00795626 -1.82092 0 9.36742e-14 -7.23051e-13 0 5.20104e-21 1.45743e-27
4775 160 0.0015 0.0775136 -1.82146 0 -4.53382e-14 1.86052e-12 0 5.42976e-21 4.5173e-27
4537 152 0.0015 0.358127 -1.82159 0 1.82637e-13 -1.23457e-12 0 0 8.63145e-27
10281 343 0.0015 0.432102 -1.82177 0 4.27345e-13 2.10212e-12 0 3.72711e-20 3.03264e-27
6010 201 0.0015 0.518074 -1.8206 0 9.78762e-13 2.38649e-12 0 1.19907e-20 7.95953e-27
1498 50 0.0015 0.616976 -1.82189 0 -1.88201e-12 -1.71621e-12 0 1.36296e-20 5.47578e-27
8016 268 0.0015 -0.154154 -1.81981 0 2.45407e-13 6.86186e-13 0 3.80484e-21 9.72102e-28
10348 345 0.0015 -0.0787939 -1.81939 0 9.25038e-13 -5.40837e-12 0 0 1.32995e-26
8053 269 0.0015 0.147139 -1.81978 0 1.31348e-13 -9.38039e-13 0 0 2.91202e-27
6545 219 0.0015 0.211005 -1.81821 0 2.4215e-13 -2.52695e-12 0 3.51396e-21 7.12919e-27
10210 341 0.0015 0.282899 -1.8182 0 -1.4454e-13 1.42863e-12 0 3.6872e-21 3.67547e-27
1499 50 0.0015 0.619202 -1.81898 0 6.03008e-13 1.49898e-12 0 1.36296e-20 1.92605e-27
2668 89 0.0015 -0.671376 -1.81782 0 1.62052e-12 -1.44233e-12 0 2.66302e-20 3.31437e-27
6042 202 0.0015 -0.366251 -1.81604 0 -2.28873e-13 4.19686e-13 0 5.48788e-21 3.62476e-28
10349 345 0.0015 -0.0794707 -1.81629 0 -1.71032e-12 9.24762e-12 0 0 4.48757e-26
1968 66 0.0015 0.00747613 -1.81614 0 -1.29163e-13 5.64141e-13 0 5.20104e-21 1.6042e-27
10282 343 0.0015 0.432823 -1.81781 0 -7.63916e-13 -3.36498e-12 0 3.72711e-20 6.72334e-27
1500 50 0.0015 0.621428 -1.81607 0 -6.06679e-13 -1.2498e-12 0 6.81478e-21 1.88705e-27
2669 89 0.0015 -0.675097 -1.81497 0 -1.50403e-12 1.02302e-12 0 1.06521e-20 2.78051e-27
5941 199 0.0015 0.740778 -1.81551 0 -1.86128e-13 -7.08936e-13 0 0 1.43308e-27
2670 89 0.0015 -0.678818 -1.81211 0 3.76337e-13 -1.91967e-13 0 5.32605e-21 2.24846e-28
10174 340 0.0015 -0.24772 -1.81396 0 2.27796e-13 -2.91673e-13 0 0 3.38432e-28
10350 345 0.0015 -0.0801475 -1.81318 0 1.28372e-12 -6.39512e-12 0 0 3.75616e-26
4776 160 0.0015 0.0772524 -1.81226 0 1.76357e-14 -8.19215e-13 0 2.71488e-21 1.62474e-27
8054 269 0.0015 0.146443 -1.81304 0 7.41626e-14 -1.12465e-12 0 0 1.52131e-27
4538 152 0.0015 0.356779 -1.81297 0 3.4775e-13 -2.15522e-12 0 5.72705e-21 7.16579e-27
10283 343 0.0015 0.433544 -1.81386 0 1.1454e-12 5.52041e-12 0 2.48474e-20 1.95472e-26
6011 201 0.0015 0.521089 -1.81283 0 -1.20306e-13 -2.16575e-13 0 1.19907e-20 4.06436e-27
1969 66 0.0015 0.00699599 -1.81136 0 1.41139e-14 5.71358e-13 0 0 2.74237e-28
6546 219 0.0015 0.210443 -1.81113 0 -3.2904e-13 4.00187e-12 0 3.51396e-21 1.62683e-26
10211 341 0.0015 0.282098 -1.81148 0 2.80388e-13 -2.45148e-12 0 3.6872e-21 5.829e-27
6043 202 0.0015 -0.371054 -1.8083 0 9.6474e-13 -1.61263e-12 0 5.48788e-21 6.1621e-27
10284 343 0.0015 0.434265 -1.8099 0 -1.20348e-12 -6.21245e-12 0 1.24237e-20 2.30453e-26
10175 340 0.0015 -0.252228 -1.80757 0 -4.34792e-13 6.85547e-13 0 0 7.14371e-28
8017 268 0.0015 -0.149712 -1.80745 0 -2.85474e-13 -8.05208e-13 0 1.90242e-21 1.38366e-27
1970 66 0.0015 0.00651585 -1.80658 0 1.2865e-13 -1.76727e-12 0 0 3.60064e-27