ITEM: TIMESTEP
25800
ITEM: NUMBER OF ATOMS
10500
ITEM: BOX BOUNDS pp pp pp
-1.0249999999999999e+00 1.0249999999999999e+00
-2.0000000000000000e+00 2.0000000000000000e+00
-5.0000000000000003e-02 5.0000000000000003e-02
ITEM: ATOMS id type radius x y z fx fy fz c_bendingE c_stretchingE
10321 345 0.0015 -0.0605191 -1.90326 0 8.94488e-13 -4.44873e-12 0 0 1.81795e-26
6031 202 0.0015 -0.31342 -1.90111 0 -1.04888e-13 1.59351e-13 0 0 9.19675e-29
10322 345 0.0015 -0.061196 -1.90016 0 -2.5179e-12 1.21371e-11 0 0 7.27049e-26
8041 269 0.0015 0.155487 -1.90065 0 6.88262e-14 -5.90502e-13 0 0 6.64995e-28
10261 343 0.0015 0.417684 -1.90089 0 -1.3385e-13 -9.28256e-13 0 0 9.81174e-28
1471 50 0.0015 0.556864 -1.90052 0 -3.79999e-13 -7.83243e-13 0 6.81478e-21 7.40893e-28
10323 345 0.0015 -0.0618728 -1.89705 0 2.08469e-12 -9.16085e-12 0 0 5.66116e-26
1951 66 0.0015 0.0156385 -1.89738 0 -3.42219e-13 3.39238e-12 0 5.20104e-21 1.55099e-26
10262 343 0.0015 0.418405 -1.89694 0 2.50664e-13 2.22899e-12 0 0 2.87074e-27
1472 50 0.0015 0.559091 -1.8976 0 -5.62058e-13 -1.48787e-13 0 6.81478e-21 2.49516e-27
2641 89 0.0015 -0.570912 -1.89491 0 1.4244e-12 -8.68186e-13 0 0 3.58385e-27
1473 50 0.0015 0.561317 -1.89469 0 9.10548e-13 9.18455e-13 0 6.81478e-21 1.75518e-27
2642 89 0.0015 -0.574633 -1.89206 0 -2.37977e-12 1.19985e-12 0 0 4.78416e-27
6032 202 0.0015 -0.318223 -1.89337 0 4.97342e-13 -7.67137e-13 0 2.74394e-21 1.4152e-27
10324 345 0.0015 -0.0625496 -1.89394 0 -5.8478e-13 1.20498e-12 0 0 2.13499e-27
1952 66 0.0015 0.0151583 -1.8926 0 2.89179e-13 -2.87501e-12 0 1.04021e-20 1.58708e-26
8042 269 0.0015 0.154791 -1.89391 0 -8.9099e-14 6.66595e-13 0 0 6.76379e-28
10263 343 0.0015 0.419126 -1.89298 0 -1.9074e-13 -2.40428e-12 0 0 3.23852e-27
3540 118 0.0015 0.637977 -1.89243 0 -2.66927e-12 -1.51805e-12 0 0 8.18813e-27
6061 203 0.0015 -0.387409 -1.89062 0 -1.56377e-12 4.73188e-13 0 2.48474e-20 1.45795e-27
10325 345 0.0015 -0.0632265 -1.89084 0 8.6197e-14 4.88099e-13 0 0 9.2906e-29
10231 342 0.0015 0.215 -1.89 0 -1.50887e-13 0 0 0 4.37435e-30
10232 342 0.0015 0.21569 -1.89 0 9.41525e-13 0 0 0 1.24127e-28
10233 342 0.0015 0.216379 -1.89 0 -2.75258e-12 0 0 0 8.57315e-28
10234 342 0.0015 0.217069 -1.89 0 3.87521e-12 0 0 0 1.43899e-27
10235 342 0.0015 0.217759 -1.89 0 -4.09276e-12 0 0 0 1.61142e-27
10236 342 0.0015 0.218448 -1.89 0 4.60007e-12 0 0 0 2.03245e-27
10237 342 0.0015 0.219138 -1.89 0 -5.54204e-12 0 0 0 2.98876e-27
10238 342 0.0015 0.219828 -1.89 0 6.41135e-12 0 0 0 3.93974e-27
10239 342 0.0015 0.220517 -1.89 0 -6.52001e-12 0 0 0 4.07195e-27
10240 342 0.0015 0.221207 -1.89 0 6.41112e-12 0 0 0 3.93725e-27
10241 342 0.0015 0.221897 -1.89 0 -6.33913e-12 0 0 0 3.8486e-27
10242 342 0.0015 0.222586 -1.89 0 5.79559e-12 0 0 0 3.24293e-27
10243 342 0.0015 0.223276 -1.89 0 -5.03495e-12 0 0 0 2.43358e-27
10244 342 0.0015 0.223966 -1.89 0 5.39738e-12 0 0 0 2.8248e-27
10245 342 0.0015 0.224655 -1.89 0 -7.31643e-12 0 0 0 5.2937e-27
10246 342 0.0015 0.225345 -1.89 0 7.31643e-12 0 0 0 5.2937e-27
10247 342 0.0015 0.226034 -1.89 0 -5.39738e-12 0 0 0 2.8248e-27
10248 342 0.0015 0.226724 -1.89 0 5.03495e-12 0 0 0 2.43358e-27
10249 342 0.0015 0.227414 -1.89 0 -5.79559e-12 0 0 0 3.24293e-27
10250 342 0.0015 0.228103 -1.89 0 6.33913e-12 0 0 0 3.8486e-27
10251 342 0.0015 0.228793 -1.89 0 -6.41112e-12 0 0 0 3.93725e-27
10252 342 0.0015 0.229483 -1.89 0 6.52001e-12 0 0 0 4.07195e-27
10253 342 0.0015 0.230172 -1.89 0 -6.41135e-12 0 0 0 3.93974e-27
10254 342 0.0015 0.230862 -1.89 0 5.54204e-12 0 0 0 2.98876e-27
10255 342 0.0015 0.231552 -1.89 0 -4.60007e-12 0 0 0 2.03245e-27
10256 342 0.0015 0.232241 -1.89 0 4.09276e-12 0 0 0 1.61142e-27
10257 342 0.0015 0.232931 -1.89 0 -3.87521e-12 0 0 0 1.43899e-27
10258 342 0.0015 0.233621 -1.89 0 2.75258e-12 0 0 0 8.57315e-28
10259 342 0.0015 0.23431 -1.89 0 -9.41525e-13 0 0 0 1.24127e-28
10260 342 0.0015 0.235 -1.89 0 1.50887e-13 0 0 0 4.37435e-30
6001 201 0.0015 0.490936 -1.89052 0 1.44046e-13 3.42017e-13 0 0 3.18541e-28
1474 50 0.0015 0.563543 -1.89178 0 1.06452e-12 1.43552e-12 0 0 3.14433e-27
3539 118 0.0015 0.640514 -1.89051 0 6.58108e-12 3.21064e-12 0 0 2.33377e-26
2643 89 0.0015 -0.578354 -1.8892 0 4.59487e-13 3.09257e-13 0 0 2.00027e-27
6063 203 0.0015 -0.391043 -1.8889 0 3.85487e-12 -3.98978e-12 0 4.96948e-20 1.05808e-26
6064 203 0.0015 -0.392859 -1.88804 0 -3.20587e-12 4.29967e-12 0 2.48474e-20 1.02175e-26
6062 203 0.0015 -0.389226 -1.88976 0 9.33924e-13 4.01647e-13 0 4.96948e-20 1.95567e-27
10264 343 0.0015 0.419847 -1.88903 0 6.66855e-13 4.38481e-12 0 1.24237e-20 1.37685e-26
1475 50 0.0015 0.56577 -1.88887 0 -1.31992e-12 -2.13361e-12 0 0 3.70041e-27
3538 118 0.0015 0.643052 -1.8886 0 -3.37238e-12 -8.0182e-14 0 0 1.68855e-26
2644 89 0.0015 -0.582074 -1.88635 0 5.21331e-13 -8.95923e-13 0 0 8.40053e-28
6066 203 0.0015 -0.396492 -1.88631 0 1.9198e-13 -5.63028e-12 0 2.48474e-20 2.34907e-27
6065 203 0.0015 -0.394676 -1.88717 0 -8.39291e-13 1.63384e-12 0 0 2.25635e-27
7981 267 0.0015 -0.194876 -1.88635 0 6.04052e-13 -6.40584e-13 0 0 4.3281e-28
10326 345 0.0015 -0.0639033 -1.88773 0 6.02301e-13 -2.1989e-12 0 1.57149e-20 3.76708e-27
1953 66 0.0015 0.0146782 -1.88782 0 3.97754e-13 -3.83421e-12 0 1.04021e-20 1.51966e-26
8043 269 0.0015 0.154095 -1.88717 0 1.29986e-13 -1.11843e-12 0 0 2.07861e-27
3537 118 0.0015 0.645589 -1.88668 0 -3.1252e-12 -3.7725e-12 0 0 1.17367e-26
6068 203 0.0015 -0.400126 -1.88459 0 9.09728e-13 2.88716e-12 0 4.96948e-20 3.71564e-28
6067 203 0.0015 -0.398309 -1.88545 0 -8.46467e-14 2.07962e-12 0 4.96948e-20 2.88015e-28
6033 202 0.0015 -0.323025 -1.88564 0 -5.57904e-13 8.54487e-13 0 2.74394e-21 1.54609e-27
7983 267 0.0015 -0.199527 -1.8846 0 2.11576e-13 -1.02507e-12 0 0 1.43887e-28
7982 267 0.0015 -0.197202 -1.88548 0 -4.93371e-13 1.27307e-12 0 0 4.42796e-28
10327 345 0.0015 -0.0645802 -1.88463 0 -8.54588e-13 2.28828e-12 0 1.57149e-20 3.84033e-27
10265 343 0.0015 0.420568 -1.88507 0 -8.69129e-13 -4.09559e-12 0 1.24237e-20 1.32278e-26
1476 50 0.0015 0.567996 -1.88596 0 -7.06611e-13 -7.8354e-14 0 0 2.10002e-27
3536 118 0.0015 0.648126 -1.88476 0 4.76107e-12 3.02796e-12 0 0 1.45073e-26
2645 89 0.0015 -0.585795 -1.88349 0 6.73755e-13 -9.99285e-15 0 0 7.08031e-28
6071 203 0.0015 -0.405575 -1.882 0 7.86053e-12 -1.64867e-12 0 7.45423e-20 1.71862e-26
6070 203 0.0015 -0.403759 -1.88287 0 -6.42699e-12 1.55446e-12 0 4.96948e-20 1.29207e-26
6069 203 0.0015 -0.401942 -1.88373 0 1.98051e-12 -2.67802e-12 0 4.96948e-20 2.99288e-27
7985 267 0.0015 -0.204179 -1.88284 0 4.59569e-12 -1.94769e-12 0 1.00459e-20 8.97528e-27
7984 267 0.0015 -0.201853 -1.88372 0 -3.11205e-12 1.557e-12 0 0 6.43898e-27
1954 66 0.0015 0.0141981 -1.88304 0 -3.59096e-13 3.31196e-12 0 5.20104e-21 1.48357e-26
6002 201 0.0015 0.493952 -1.88275 0 1.77719e-13 5.45992e-13 0 0 2.38247e-27
1477 50 0.0015 0.570222 -1.88304 0 1.98402e-12 1.7311e-12 0 0 3.39657e-27
3535 118 0.0015 0.650663 -1.88285 0 -9.40725e-13 7.5518e-13 0 0 7.91037e-27
2646 89 0.0015 -0.589516 -1.88064 0 -1.24619e-12 5.5143e-13 0 0 1.15007e-27
6073 203 0.0015 -0.409209 -1.88028 0 -6.97891e-14 8.91137e-12 0 2.48474e-20 4.75296e-27
6072 203 0.0015 -0.407392 -1.88114 0 -4.02721e-12 -3.16316e-12 0 4.96948e-20 7.81251e-27
7988 267 0.0015 -0.211156 -1.8802 0 4.45093e-12 -9.06752e-13 0 1.00459e-20 7.30472e-27
7987 267 0.0015 -0.208831 -1.88108 0 -4.45116e-12 2.18331e-12 0 2.00918e-20 8.52577e-27
7986 267 0.0015 -0.206505 -1.88196 0 1.31083e-13 -2.64882e-13 0 2.00918e-20 5.96023e-27
8011 268 0.0015 -0.176367 -1.88159 0 1.50215e-13 4.14887e-13 0 0 7.10132e-28
10328 345 0.0015 -0.065257 -1.88152 0 8.03784e-13 -1.16303e-12 0 1.57149e-20 9.02657e-28
8044 269 0.0015 0.1534 -1.88043 0 -2.80862e-13 2.81772e-12 0 0 8.05373e-27
10266 343 0.0015 0.421289 -1.88111 0 8.23071e-14 -1.14819e-12 0 1.24237e-20 5.12348e-27
1478 50 0.0015 0.572449 -1.88013 0 -2.84557e-13 9.92023e-14 0 0 3.45776e-27
3534 118 0.0015 0.653201 -1.88093 0 -2.71278e-12 -2.54974e-12 0 1.57149e-20 6.0716e-27
10292 344 0.0015 -0.465124 -1.8785 0 -1.86382e-12 5.1924e-13 0 0 1.78847e-27
10291 344 0.0015 -0.4623 -1.87941 0 5.76e-13 -9.77769e-14 0 0 2.75564e-28
6074 203 0.0015 -0.411025 -1.87942 0 7.58742e-13 -7.22366e-12 0 0 4.61835e-27
6075 203 0.0015 -0.412842 -1.87856 0 -1.26283e-12 2.62682e-12 0 2.48474e-20 1.43523e-27
7990 267 0.0015 -0.215808 -1.87844 0 -1.0067e-12 1.15508e-12 0 1.00459e-20 1.20907e-27
7989 267 0.0015 -0.213482 -1.87932 0 -2.26336e-12 -1.16962e-12 0 0 2.0695e-27
10329 345 0.0015 -0.0659339 -1.87841 0 -6.16256e-13 2.81986e-13 0 0 1.03929e-27
1955 66 0.0015 0.0137179 -1.87827 0 -2.46864e-13 2.60498e-12 0 0 9.11056e-27
10201 341 0.0015 0.290108 -1.87875 0 5.41746e-14 -4.99246e-13 0 0 4.74528e-28
3533 118 0.0015 0.655738 -1.87902 0 4.06148e-13 -4.73584e-13 0 1.57149e-20 5.21784e-27
2647 89 0.0015 -0.593237 -1.87778 0 8.41098e-13 -4.93991e-13 0 0 6.50677e-28
10294 344 0.0015 -0.470773 -1.87669 0 3.908e-14 1.5863e-13 0 0 5.52592e-29
10293 344 0.0015 -0.467948 -1.87759 0 1.4159e-12 -6.39615e-13 0 0 1.54224e-27
6077 203 0.0015 -0.416475 -1.87683 0 4.56756e-12 3.1752e-12 0 4.96948e-20 2.86706e-27
6076 203 0.0015 -0.414658 -1.87769 0 -1.42974e-14 -1.31262e-12 0 4.96948e-20 8.88984e-28
6034 202 0.0015 -0.327828 -1.87791 0 3.16453e-13 -4.76935e-13 0 2.74394e-21 4.14444e-28
7992 267 0.0015 -0.22046 -1.87668 0 5.85048e-13 -2.43955e-13 0 2.00918e-20 3.42415e-28
7991 267 0.0015 -0.218134 -1.87756 0 1.61874e-12 3.50454e-13 0 2.00918e-20 1.21168e-27
10267 343 0.0015 0.42201 -1.87716 0 6.87007e-13 5.08104e-12 0 0 1.54441e-26
1479 50 0.0015 0.574675 -1.87722 0 -1.75633e-12 -2.7347e-12 0 0 5.61239e-27
3532 118 0.0015 0.658275 -1.8771 0 2.71182e-12 2.93204e-12 0 1.57149e-20 6.94805e-27
2648 89 0.0015 -0.596958 -1.87493 0 -2.04056e-12 1.48225e-12 0 0 6.25567e-27
10296 344 0.0015 -0.476421 -1.87487 0 2.63417e-12 -1.54232e-12 0 0 3.67298e-27
10295 344 0.0015 -0.473597 -1.87578 0 -1.3718e-12 8.66822e-13 0 0 1.62675e-27
6080 203 0.0015 -0.421925 -1.87425 0 -6.99057e-12 2.6822e-12 0 0 1.56846e-26
6079 203 0.0015 -0.420108 -1.87511 0 8.41658e-12 2.46055e-12 0 0 1.19976e-26
6078 203 0.0015 -0.418291 -1.87597 0 -8.34899e-12 -5.14678e-12 0 2.48474e-20 8.20799e-27
7995 267 0.0015 -0.227437 -1.87404 0 -2.45627e-12 -2.96212e-12 0 0 1.51442e-27
7994 267 0.0015 -0.225111 -1.87492 0 3.41278e-12 2.68447e-12 0 0 1.89989e-27
7993 267 0.0015 -0.222785 -1.8758 0 -2.23324e-12 -1.72573e-12 0 1.00459e-20 7.56783e-28
10330 345 0.0015 -0.0666107 -1.87531 0 -3.39119e-13 2.5084e-12 0 1.57149e-20 3.73998e-27
6003 201 0.0015 0.496967 -1.87498 0 -9.41108e-13 -2.52873e-12 0 0 9.1824e-27
1480 50 0.0015 0.576901 -1.87431 0 3.30352e-12 5.07132e-12 0 0 2.07191e-26
3531 118 0.0015 0.660812 -1.87519 0 -1.83748e-12 -1.9292e-12 0 0 4.5374e-27
2649 89 0.0015 -0.600679 -1.87207 0 4.61506e-12 -3.45142e-12 0 0 2.29802e-26
10299 344 0.0015 -0.484893 -1.87215 0 -5.68294e-12 1.63219e-12 0 0 1.45256e-26
10298 344 0.0015 -0.482069 -1.87306 0 5.00512e-12 -8.82709e-13 0 0 1.04823e-26
10297 344 0.0015 -0.479245 -1.87396 0 -3.79433e-12 1.11589e-12 0 0 6.69232e-27
6082 203 0.0015 -0.425558 -1.87252 0 7.7925e-13 -6.64919e-12 0 0 6.13838e-27
6081 203 0.0015 -0.423741 -1.87338 0 4.04631e-12 -3.66594e-13 0 0 9.24627e-27
7997 267 0.0015 -0.232089 -1.87228 0 1.46049e-12 -2.79743e-12 0 1.00459e-20 1.93694e-27
7996 267 0.0015 -0.229763 -1.87316 0 -3.04581e-13 3.47801e-12 0 0 1.19907e-27
10331 345 0.0015 -0.0672875 -1.8722 0 -6.40104e-14 9.3235e-13 0 3.14298e-20 1.09715e-26
1956 66 0.0015 0.0132378 -1.87349 0 3.90715e-13 -3.59334e-12 0 0 1.04479e-26
8045 269 0.0015 0.152704 -1.87369 0 1.98096e-13 -2.18406e-12 0 0 6.30174e-27
10202 341 0.0015 0.289307 -1.87202 0 1.90337e-13 -1.54143e-12 0 0 8.42387e-27
4531 152 0.0015 0.366216 -1.8733 0 -1.00142e-14 -2.10929e-15 0 0 6.98544e-34
10268 343 0.0015 0.422731 -1.8732 0 -1.31353e-12 -7.24924e-12 0 0 3.09355e-26
3530 118 0.0015 0.66335 -1.87327 0 1.39785e-12 1.76964e-12 0 0 2.95195e-27
10301 344 0.0015 -0.490541 -1.87033 0 -1.79081e-12 1.5091e-12 0 0 4.276e-27
10300 344 0.0015 -0.487717 -1.87124 0 5.07779e-12 -2.23475e-12 0 0 1.29297e-26
6084 203 0.0015 -0.429191 -1.8708 0 2.65975e-12 -3.77937e-12 0 0 4.59744e-27
6083 203 0.0015 -0.427374 -1.87166 0 -2.64344e-12 6.21761e-12 0 0 7.80948e-27
6035 202 0.0015 -0.332631 -1.87017 0 -4.28245e-13 6.45317e-13 0 2.74394e-21 8.2097e-28
7999 267 0.0015 -0.23674 -1.87052 0 1.85268e-12 -8.67465e-13 0 1.00459e-20 1.50486e-27
7998 267 0.0015 -0.234415 -1.8714 0 -1.90024e-12 1.47003e-12 0 1.00459e-20 1.83471e-27
1481 50 0.0015 0.579128 -1.8714 0 -3.08996e-12 -4.80316e-12 0 0 1.94538e-26
3529 118 0.0015 0.665887 -1.87136 0 -3.21386e-12 -3.43625e-12 0 0 9.98944e-27
2650 89 0.0015 -0.6044 -1.86922 0 -3.01317e-12 2.43013e-12 0 5.32605e-21 1.69873e-26
10303 344 0.0015 -0.49619 -1.86852 0 3.51022e-12 -7.19917e-13 0 0 5.25031e-27
10302 344 0.0015 -0.493366 -1.86943 0 -2.17373e-12 -2.04728e-13 0 0 2.97826e-27
6087 203 0.0015 -0.434641 -1.86821 0 6.546e-12 3.48059e-12 0 0 7.43096e-27
6085 203 0.0015 -0.431008 -1.86994 0 1.85824e-12 6.11081e-12 0 0 3.88727e-27
6086 203 0.0015 -0.432824 -1.86908 0 -8.43671e-12 -6.41188e-12 0 0 7.9906e-27
8001 267 0.0015 -0.241392 -1.86876 0 -1.94697e-12 -1.02675e-12 0 0 9.30606e-28
8000 267 0.0015 -0.239066 -1.86964 0 -1.61242e-13 8.35516e-13 0 0 5.25517e-28
8012 268 0.0015 -0.171924 -1.86923 0 2.00412e-13 5.62869e-13 0 0 4.64547e-27
10332 345 0.0015 -0.0679644 -1.86909 0 1.57097e-12 -8.23554e-12 0 3.14298e-20 3.39063e-26
1957 66 0.0015 0.0127576 -1.86871 0 -2.06262e-13 1.2717e-12 0 0 1.44552e-27
10269 343 0.0015 0.423451 -1.86924 0 9.77418e-13 4.25461e-12 0 0 1.98318e-26
1482 50 0.0015 0.581354 -1.86848 0 -9.61684e-13 -4.87837e-13 0 0 9.69469e-27
3528 118 0.0015 0.668424 -1.86944 0 3.12095e-12 3.53978e-12 0 0 9.95242e-27
2651 89 0.0015 -0.608121 -1.86636 0 -1.04812e-12 5.91388e-13 0 5.32605e-21 2.87325e-27
10305 344 0.0015 -0.501838 -1.8667 0 3.71295e-12 -3.1627e-12 0 0 1.21004e-26
10304 344 0.0015 -0.499014 -1.86761 0 -1.99741e-12 1.65237e-12 0 0 2.73674e-27
6089 203 0.0015 -0.438274 -1.86649 0 -7.31697e-12 7.06879e-12 0 0 2.71126e-26
6088 203 0.0015 -0.436457 -1.86735 0 1.21734e-12 -4.24403e-12 0 0 8.51025e-27
8004 267 0.0015 -0.248369 -1.86612 0 1.21775e-12 2.15566e-12 0 1.00459e-20 5.51373e-29
8003 267 0.0015 -0.246044 -1.867 0 -1.38275e-12 -2.99886e-12 0 0 1.86975e-29
8002 267 0.0015 -0.243718 -1.86788 0 2.06467e-12 2.01772e-12 0 0 8.53693e-28
8046 269 0.0015 0.152008 -1.86695 0 -1.17431e-13 1.2943e-12 0 0 1.80664e-27
6004 201 0.0015 0.499982 -1.86721 0 9.06994e-13 2.41717e-12 0 0 8.70512e-27
3527 118 0.0015 0.670962 -1.86752 0 -1.06799e-12 -1.75614e-12 0 0 2.79226e-27
10307 344 0.0015 -0.507486 -1.86489 0 4.63624e-12 3.49531e-13 0 1.68424e-20 1.47335e-26
10306 344 0.0015 -0.504662 -1.8658 0 -7.42639e-12 2.99727e-12 0 1.68424e-20 2.63738e-26
6090 203 0.0015 -0.440091 -1.86563 0 4.65004e-12 -3.81948e-12 0 0 1.9038e-26
8006 267 0.0015 -0.253021 -1.86436 0 -1.37942e-12 -1.33158e-12 0 1.00459e-20 9.30086e-28
8005 267 0.0015 -0.250695 -1.86524 0 -4.72527e-13 3.24082e-13 0 1.00459e-20 1.07731e-28
10333 345 0.0015 -0.0686412 -1.86599 0 -1.77144e-12 8.83974e-12 0 3.14298e-20 3.75152e-26
10203 341 0.0015 0.288506 -1.8653 0 -6.61081e-13 5.66788e-12 0 3.6872e-21 3.30348e-26
4532 152 0.0015 0.364868 -1.86469 0 -4.24834e-14 4.39518e-13 0 5.72705e-21 4.69701e-28
10270 343 0.0015 0.424172 -1.86529 0 4.89557e-14 1.37981e-12 0 0 2.59333e-27
1483 50 0.0015 0.58358 -1.86557 0 3.08288e-12 3.2559e-12 0 0 1.04218e-26
3526 118 0.0015 0.673499 -1.86561 0 -2.32307e-12 -1.53686e-12 0 0 7.53447e-27
2652 89 0.0015 -0.611842 -1.86351 0 1.29197e-12 -1.13127e-12 0 1.06521e-20 2.8625e-27
10310 344 0.0015 -0.515959 -1.86217 0 1.78292e-12 -1.57923e-12 0 5.05273e-20 2.48431e-27
10309 344 0.0015 -0.513134 -1.86307 0 -2.04499e-12 3.67354e-12 0 3.36849e-20 3.90832e-27
10308 344 0.0015 -0.51031 -1.86398 0 2.97479e-13 -3.44358e-12 0 3.36849e-20 1.65686e-27
6036 202 0.0015 -0.337434 -1.86244 0 1.96371e-13 -2.4183e-13 0 5.48788e-21 7.20521e-28
8008 267 0.0015 -0.257673 -1.8626 0 1.84747e-12 2.83471e-12 0 0 2.12747e-27
8007 267 0.0015 -0.255347 -1.86348 0 1.74726e-12 -8.77739e-13 0 0 1.3366e-27
10334 345 0.0015 -0.0693181 -1.86288 0 5.71105e-13 -2.94377e-12 0 1.57149e-20 1.13583e-26
1958 66 0.0015 0.0122775 -1.86393 0 1.41445e-13 -5.67315e-13 0 0 2.23387e-28
1484 50 0.0015 0.585807 -1.86266 0 -8.43428e-13 -5.65507e-13 0 0 4.26666e-27
3525 118 0.0015 0.676036 -1.86369 0 2.32307e-12 1.53686e-12 0 0 7.53447e-27
2653 89 0.0015 -0.615563 -1.86065 0 7.93176e-13 -6.86861e-14 0 5.32605e-21 1.19638e-27
10312 344 0.0015 -0.521607 -1.86035 0 -2.84953e-12 2.21266e-12 0 3.36849e-20 6.96878e-27
10311 344 0.0015 -0.518783 -1.86126 0 1.98324e-12 -1.45647e-12 0 3.36849e-20 6.96466e-27
8010 267 0.0015 -0.262324 -1.86085 0 1.31727e-12 6.19194e-13 0 0 7.08887e-28
8009 267 0.0015 -0.259998 -1.86172 0 -3.5536e-12 -2.15207e-12 0 0 2.36711e-27
8047 269 0.0015 0.151313 -1.86021 0 2.16038e-13 -2.00428e-12 0 0 3.87586e-27
10271 343 0.0015 0.424893 -1.86133 0 -2.38916e-13 -1.68891e-12 0 0 2.6077e-27
3524 118 0.0015 0.678573 -1.86178 0 1.06799e-12 1.75614e-12 0 0 2.79226e-27
10314 344 0.0015 -0.527255 -1.85854 0 2.55968e-12 -2.18639e-13 0 1.68424e-20 6.32844e-27
10313 344 0.0015 -0.524431 -1.85944 0 -2.41235e-12 -2.2092e-13 0 1.68424e-20 6.50639e-27
10335 345 0.0015 -0.0699949 -1.85978 0 4.27006e-13 -2.17523e-12 0 1.57149e-20 2.72584e-27
1959 66 0.0015 0.0117974 -1.85915 0 -1.01435e-13 5.27071e-13 0 0 1.92508e-28
4771 160 0.0015 0.0785585 -1.85825 0 6.51462e-15 -1.98251e-13 0 0 1.00561e-28
10204 341 0.0015 0.287705 -1.85857 0 6.0418e-13 -5.43794e-12 0 3.6872e-21 3.13205e-26
6005 201 0.0015 0.502997 -1.85945 0 -2.74799e-13 -7.70188e-13 0 5.99535e-21 1.58691e-27
1485 50 0.0015 0.588033 -1.85975 0 -1.90116e-12 -2.93667e-12 0 0 7.6964e-27
3523 118 0.0015 0.681111 -1.85986 0 -3.12095e-12 -3.53978e-12 0 0 9.95242e-27
2654 89 0.0015 -0.619284 -1.8578 0 -1.61991e-12 7.91387e-13 0 5.32605e-21 2.03803e-27
10316 344 0.0015 -0.532903 -1.85672 0 -4.55561e-12 2.54804e-12 0 0 1.13998e-26
10315 344 0.0015 -0.530079 -1.85763 0 3.03496e-12 -1.74828e-12 0 0 8.32669e-27
8013 268 0.0015 -0.167482 -1.85688 0 -7.09497e-13 -1.97352e-12 0 0 8.02166e-27
10336 345 0.0015 -0.0706718 -1.85667 0 -2.96211e-13 2.67519e-12 0 0 3.35791e-27
4533 152 0.0015 0.36352 -1.85607 0 1.47722e-13 -1.08515e-12 0 1.14541e-20 1.50828e-27
10272 343 0.0015 0.425614 -1.85738 0 1.58256e-13 1.00808e-12 0 0 8.12767e-28
1486 50 0.0015 0.59026 -1.85684 0 1.90116e-12 2.93667e-12 0 0 7.6964e-27
3522 118 0.0015 0.683648 -1.85795 0 3.21386e-12 3.43625e-12 0 0 9.98944e-27
3521 118 0.0015 0.686185 -1.85603 0 -1.39785e-12 -1.76964e-12 0 0 2.95195e-27
2655 89 0.0015 -0.623004 -1.85494 0 1.09152e-12 -8.31475e-13 0 5.32605e-21 1.29034e-27
10318 344 0.0015 -0.538552 -1.85491 0 1.39407e-12 -1.23876e-12 0 0 2.38878e-27
10317 344 0.0015 -0.535727 -1.85581 0 1.72982e-12 -9.72995e-13 0 0 3.12697e-27
6037 202 0.0015 -0.342237 -1.85471 0 1.04747e-13 -2.29083e-13 0 8.23182e-21 1.00253e-28
1960 66 0.0015 0.0113172 -1.85437 0 -2.16272e-14 3.27138e-13 0 0 5.08296e-28
3520 118 0.0015 0.688722 -1.85412 0 1.83748e-12 1.9292e-12 0 0 4.5374e-27
2656 89 0.0015 -0.626725 -1.85209 0 -2.00604e-12 1.66231e-12 0 1.06521e-20 5.96923e-27
10320 344 0.0015 -0.5442 -1.85309 0 1.71672e-12 -9.72859e-13 0 0 3.07563e-27
10319 344 0.0015 -0.541376 -1.854 0 -3.14265e-12 2.10096e-12 0 0 5.4644e-27
10337 345 0.0015 -0.0713486 -1.85356 0 -1.05456e-13 -1.50795e-12 0 0 1.06976e-27
8048 269 0.0015 0.150617 -1.85348 0 -8.41857e-14 6.51814e-13 0 0 2.79772e-27
10273 343 0.0015 0.426335 -1.85342 0 -3.72645e-14 -6.05304e-13 0 0 8.32251e-28
1487 50 0.0015 0.592486 -1.85392 0 8.43428e-13 5.65507e-13 0 0 4.26666e-27
3519 118 0.0015 0.69126 -1.8522 0 -2.71182e-12 -2.93204e-12 0 1.57149e-20 6.94805e-27
10338 345 0.0015 -0.0720254 -1.85046 0 -2.1328e-14 1.37402e-12 0 1.57149e-20 8.94516e-28
10205 341 0.0015 0.286904 -1.85184 0 -6.40575e-14 9.49702e-13 0 3.6872e-21 7.6581e-27
6006 201 0.0015 0.506013 -1.85168 0 1.79343e-13 4.72619e-13 0 5.99535e-21 6.16513e-28
1488 50 0.0015 0.594712 -1.85101 0 -3.08288e-12 -3.2559e-12 0 0 1.04218e-26
3518 118 0.0015 0.693797 -1.85028 0 -4.06148e-13 4.73584e-13 0 1.57149e-20 5.21784e-27
2657 89 0.0015 -0.630446 -1.84923 0 2.43117e-12 -1.62965e-12 0 1.06521e-20 6.53834e-27
1961 66 0.0015 0.0108371 -1.84959 0 9.80657e-14 -8.84501e-13 0 0 5.68884e-28
4772 160 0.0015 0.0782973 -1.84905 0 1.07923e-14 -4.53259e-13 0 0 1.18621e-27
10274 343 0.0015 0.427056 -1.84946 0 -3.86405e-13 -1.86113e-12 0 0 3.17584e-27
1489 50 0.0015 0.596939 -1.8481 0 9.61684e-13 4.87837e-13 0 0 9.69469e-27
3517 118 0.0015 0.696334 -1.84837 0 2.71278e-12 2.54974e-12 0 1.57149e-20 6.0716e-27
2658 89 0.0015 -0.634167 -1.84638 0 -1.62917e-13 -4.92805e-13 0 5.32605e-21 2.28341e-27
6038 202 0.0015 -0.34704 -1.84697 0 3.94128e-13 -6.38442e-13 0 5.48788e-21 1.66957e-27
10339 345 0.0015 -0.0727023 -1.84735 0 1.12791e-12 -5.36267e-12 0 3.14298e-20 1.92163e-26
8049 269 0.0015 0.149922 -1.84674 0 -1.00823e-13 1.08402e-12 0 0 1.13673e-27
6541 219 0.0015 0.213251 -1.84656 0 7.95634e-14 -9.94899e-13 0 0 1.96707e-27
4534 152 0.0015 0.362172 -1.84745 0 8.65585e-14 -5.11063e-13 0 1.71811e-20 4.37256e-27
3516 118 0.0015 0.698871 -1.84645 0 9.40725e-13 -7.5518e-13 0 0 7.91037e-27
8014 268 0.0015 -0.163039 -1.84452 0 1.89219e-13 5.24183e-13 0 1.90242e-21 5.00244e-27
10340 345 0.0015 -0.0733791 -1.84424 0 -1.15361e-12 5.20699e-12 0 4.71447e-20 1.90014e-26
1962 66 0.0015 0.010357 -1.84481 0 -1.14396e-13 1.00881e-12 0 0 7.79881e-28
10206 341 0.0015 0.286103 -1.84511 0 -2.41006e-13 1.80008e-12 0 0 3.10846e-27
10275 343 0.0015 0.427777 -1.84551 0 7.19071e-13 4.19694e-12 0 0 1.05952e-26
1490 50 0.0015 0.599165 -1.84519 0 3.08996e-12 4.80316e-12 0 0 1.94538e-26
3515 118 0.0015 0.701409 -1.84454 0 -4.76107e-12 -3.02796e-12 0 0 1.45073e-26
2659 89 0.0015 -0.637888 -1.84352 0 -2.95196e-12 3.07173e-12 0 0 1.46425e-26
6007 201 0.0015 0.509028 -1.84391 0 -1.53673e-13 -3.42699e-13 0 5.99535e-21 6.62206e-28
1491 50 0.0015 0.601391 -1.84228 0 -3.30352e-12 -5.07132e-12 0 0 2.07191e-26
3514 118 0.0015 0.703946 -1.84262 0 3.1252e-12 3.7725e-12 0 0 1.17367e-26
2660 89 0.0015 -0.641609 -1.84066 0 3.15746e-12 -3.21704e-12 0 0 1.53917e-26
10341 345 0.0015 -0.074056 -1.84114 0 -7.16319e-13 2.94683e-12 0 3.14298e-20 1.31807e-26
1963 66 0.0015 0.00987681 -1.84004 0 3.14428e-13 -2.99954e-12 0 0 7.83686e-27
10276 343 0.0015 0.428498 -1.84155 0 -7.19071e-13 -4.19694e-12 0 0 1.05952e-26
3513 118 0.0015 0.706483 -1.84071 0 3.37238e-12 8.0182e-14 0 0 1.68855e-26
6039 202 0.0015 -0.351842 -1.83924 0 -5.53937e-13 9.42346e-13 0 5.48788e-21 1.86221e-27
10342 345 0.0015 -0.0747328 -1.83803 0 1.10823e-12 -4.43043e-12 0 1.57149e-20 1.32072e-26
4773 160 0.0015 0.0780361 -1.83985 0 -3.49138e-14 1.23698e-12 0 2.71488e-21 1.96253e-27
8050 269 0.0015 0.149226 -1.84 0 1.79495e-13 -1.84124e-12 0 0 3.57016e-27
6542 219 0.0015 0.21269 -1.83947 0 7.33761e-14 -9.23783e-13 0 0 9.28269e-27
10207 341 0.0015 0.285302 -1.83839 0 1.45697e-13 -1.15686e-12 0 0 1.77612e-27
4535 152 0.0015 0.360823 -1.83883 0 -5.94261e-13 3.77905e-12 0 1.71811e-20 2.03833e-26
1492 50 0.0015 0.603618 -1.83936 0 1.75633e-12 2.7347e-12 0 0 5.61239e-27
3512 118 0.0015 0.70902 -1.83879 0 -6.58108e-12 -3.21064e-12 0 0 2.33377e-26
2661 89 0.0015 -0.64533 -1.83781 0 1.18721e-13 4.08676e-13 0 0 3.71651e-27
10277 343 0.0015 0.429219 -1.8376 0 3.86405e-13 1.86113e-12 0 0 3.17584e-27
6008 201 0.0015 0.512043 -1.83614 0 -4.57083e-13 -1.22759e-12 0 0 3.2087e-27
1493 50 0.0015 0.605844 -1.83645 0 2.84557e-13 -9.92023e-14 0 0 3.45776e-27
3511 118 0.0015 0.711558 -1.83688 0 2.66927e-12 1.51805e-12 0 0 8.18813e-27
2662 89 0.0015 -0.649051 -1.83495 0 -1.41267e-12 1.00105e-12 0 0 2.11199e-27
10343 345 0.0015 -0.0754097 -1.83493 0 -6.88656e-13 2.43966e-12 0 0 3.2492e-27
1964 66 0.0015 0.00939668 -1.83526 0 -4.53343e-13 4.25972e-12 0 0 1.23276e-26
2663 89 0.0015 -0.652772 -1.8321 0 6.99504e-13 -6.64844e-13 0 0 6.48012e-28
10171 340 0.0015 -0.234195 -1.83312 0 -8.10355e-13 1.12127e-12 0 0 4.15575e-27
8015 268 0.0015 -0.158597 -1.83216 0 5.58576e-13 1.55131e-12 0 1.90242e-21 5.71999e-27
8051 269 0.0015 0.14853 -1.83326 0 -3.55399e-13 3.57872e-12 0 0 1.33848e-26
6543 219 0.0015 0.212128 -1.83239 0 -2.43102e-13 3.01628e-12 0 3.51396e-21 9.7106e-27
10278 343 0.0015 0.429939 -1.83364 0 3.72645e-14 6.05304e-13 0 0 8.32251e-28
1494 50 0.0015 0.60807 -1.83354 0 -1.98402e-12 -1.7311e-12 0 0 3.39657e-27
6040 202 0.0015 -0.356645 -1.83151 0 -2.75412e-13 4.12383e-13 0 2.74394e-21 1.7327e-27
10344 345 0.0015 -0.0760865 -1.83182 0 9.35156e-13 -3.7062e-12 0 0 6.48736e-27
1965 66 0.0015 0.00891654 -1.83048 0 2.87319e-13 -2.48739e-12 0 0 5.52498e-27
4774 160 0.0015 0.0777749 -1.83066 0 8.98541e-15 -1.77812e-13 0 5.42976e-21 1.30181e-27
10208 341 0.0015 0.284501 -1.83166 0 -3.01842e-14 3.35017e-13 0 0 1.16357e-28
4536 152 0.0015 0.359475 -1.83021 0 4.8547e-13 -3.03961e-12 0 1.71811e-20 1.74882e-26
1495 50 0.0015 0.610297 -1.83063 0 7.06611e-13 7.8354e-14 0 0 2.10002e-27
2664 89 0.0015 -0.656493 -1.82924 0 8.73768e-13 -6.58672e-13 0 5.32605e-21 2.84898e-27
10345 345 0.0015 -0.0767633 -1.82871 0 -5.10851e-13 2.75902e-12 0 0 4.25161e-27
10279 343 0.0015 0.43066 -1.82968 0 -1.58256e-13 -1.00808e-12 0 0 8.12767e-28
6009 201 0.0015 0.515058 -1.82837 0 1.24542e-12 3.22817e-12 0 5.99535e-21 1.53139e-26
2665 89 0.0015 -0.660213 -1.82639 0 -9.13928e-13 9.43166e-13 0 5.32605e-21 2.71994e-27
10172 340 0.0015 -0.238704 -1.82673 0 1.16438e-12 -1.56706e-12 0 0 4.85726e-27
8052 269 0.0015 0.147835 -1.82652 0 2.43856e-13 -2.51155e-12 0 0 1.05844e-26
1496 50 0.0015 0.612523 -1.82772 0 1.31992e-12 2.13361e-12 0 0 3.70041e-27
10346 345 0.0015 -0.0774402 -1.82561 0 2.89236e-13 -2.99263e-12 0 0 4.94144e-27
1966 66 0.0015 0.0084364 -1.8257 0 1.02121e-13 -1.26828e-12 0 0 4.78402e-27
6544 219 0.0015 0.211567 -1.8253 0 1.15508e-13 -1.38531e-12 0 3.51396e-21 2.55968e-27
10209 341 0.0015 0.2837 -1.82493 0 -4.88834e-14 6.12476e-14 0 0 8.87545e-29
10280 343 0.0015 0.431381 -1.82573 0 2.38916e-13 1.68891e-12 0 0 2.6077e-27
1497 50 0.0015 0.614749 -1.8248 0 -1.06452e-12 -1.43552e-12 0 0 3.14433e-27
2666 89 0.0015 -0.663934 -1.82353 0 -8.18615e-13 3.75642e-13 0 5.32605e-21 7.36961e-28
6041 202 0.0015 -0.361448 -1.82377 0 9.49332e-13 -1.55457e-12 0 2.74394e-21 4.28393e-27
10347 345 0.0015 -0.078117 -1.8225 0 -5.80311e-13 3.8516e-12 0 0 6.83391e-27
2667 89 0.0015 -0.667655 -1.82068 0 -7.96508e-14 2.55315e-14 0 0 1.58329e-27
10173 340 0.0015 -0.243212 -1.82034 0 -8.00112e-13 1.03341e-12 0 0 1.88205e-27
1967 66 0.0015 0.00795626 -1.82092 0 -1.28314e-13 1.25471e-12 0 0 4.79993e-27
4775 160 0.0015 0.0775136 -1.82146 0 2.86438e-14 -1.21102e-12 0 8.14464e-21 2.07546e-27
4537 152 0.0015 0.358127 -1.82159 0 9.94693e-14 -7.29851e-13 0 1.14541e-20 3.71112e-27
10281 343 0.0015 0.432102 -1.82177 0 -4.89557e-14 -1.37981e-12 0 0 2.59333e-27
6010 201 0.0015 0.518074 -1.8206 0 -1.47742e-12 -3.84815e-12 0 5.99535e-21 1.991e-26
1498 50 0.0015 0.616976 -1.82189 0 -9.10548e-13 -9.18455e-13 0 6.81478e-21 1.75518e-27
8016 268 0.0015 -0.154154 -1.81981 0 -5.17874e-13 -1.43896e-12 0 1.90242e-21 5.33521e-27
10348 345 0.0015 -0.0787939 -1.81939 0 6.1325e-13 -1.7901e-12 0 0 2.42467e-27
8053 269 0.0015 0.147139 -1.81978 0 1.78767e-13 -1.67266e-12 0 0 6.41148e-27
6545 219 0.0015 0.211005 -1.81821 0 -9.688e-16 -7.97161e-14 0 3.51396e-21 4.32405e-28
10210 341 0.0015 0.282899 -1.8182 0 -1.37093e-14 5.67887e-13 0 0 1.11815e-27
1499 50 0.0015 0.619202 -1.81898 0 5.62058e-13 1.48787e-13 0 6.81478e-21 2.49516e-27
2668 89 0.0015 -0.671376 -1.81782 0 1.14558e-12 -5.44214e-13 0 0 1.10379e-27
6042 202 0.0015 -0.366251 -1.81604 0 -7.27931e-13 1.23683e-12 0 0 3.14029e-27
10349 345 0.0015 -0.0794707 -1.81629 0 -3.3874e-14 -1.84394e-12 0 0 3.70655e-27
1968 66 0.0015 0.00747613 -1.81614 0 -1.83175e-13 1.98149e-12 0 5.20104e-21 3.16227e-27
10282 343 0.0015 0.432823 -1.81781 0 -9.77418e-13 -4.25461e-12 0 0 1.98318e-26
1500 50 0.0015 0.621428 -1.81607 0 3.79999e-13 7.83243e-13 0 6.81478e-21 7.40893e-28
2669 89 0.0015 -0.675097 -1.81497 0 4.5871e-13 -7.23013e-13 0 0 2.19156e-27
5941 199 0.0015 0.740778 -1.81551 0 6.03454e-14 2.97634e-13 0 0 2.45696e-28
2670 89 0.0015 -0.678818 -1.81211 0 -9.03208e-13 8.3737e-13 0 0 1.95927e-27
10174 340 0.0015 -0.24772 -1.81396 0 9.30303e-13 -1.23118e-12 0 0 2.58784e-27
10350 345 0.0015 -0.0801475 -1.81318 0 -2.59629e-13 2.02576e-12 0 0 3.65562e-27
4776 160 0.0015 0.0772524 -1.81226 0 -2.4948e-14 1.039e-12 0 8.14464e-21 1.79251e-27
8054 269 0.0015 0.146443 -1.81304 0 -3.27467e-13 3.33312e-12 0 0 1.06562e-26
4538 152 0.0015 0.356779 -1.81297 0 -2.182e-13 1.45127e-12 0 5.72705e-21 3.49838e-27
10283 343 0.0015 0.433544 -1.81386 0 1.31353e-12 7.24924e-12 0 0 3.09355e-26
6011 201 0.0015 0.521089 -1.81283 0 1.50362e-13 4.91702e-13 0 5.99535e-21 1.17802e-26
1969 66 0.0015 0.00699599 -1.81136 0 -5.56156e-15 6.46769e-15 0 5.20104e-21 5.53512e-27
6546 219 0.0015 0.210443 -1.81113 0 5.72674e-14 -5.52847e-13 0 3.51396e-21 1.95305e-27
10211 341 0.0015 0.282098 -1.81148 0 1.12702e-13 -1.24398e-12 0 0 1.52517e-27
6043 202 0.0015 -0.371054 -1.8083 0 -2.00531e-13 2.46107e-13 0 0 1.64855e-27
10284 343 0.0015 0.434265 -1.8099 0 -6.87007e-13 -5.08104e-12 0 0 1.54441e-26
10175 340 0.0015 -0.252228 -1.80757 0 -1.08297e-12 1.44535e-12 0 0 3.5803e-27
8017 268 0.0015 -0.149712 -1.80745 0 1.02538e-13 2.80406e-13 0 0 5.56528e-28
1970 66 0.0015 0.00651585 -1.80658 0 1.19705e-13 -1.31617e-12 0 5.20104e-21 2.80092e-27
8055 269 0.0015 0.145748 -1.8063 0 2.93874e-13 -3.18589e-12 0 0 9.66079e-27
5942 199 0.0015 0.743061 -1.80618 0 -4.52806e-13 -1.96189e-12 0 0 8.04654e-27
6547 219 0.0015 0.209882 -1.80404 0 -1.76262e-13 1.96431e-12 0 3.51396e-21 3.85519e-27
10212 341 0.0015 0.281297 -1.80475 0 1.85047e-14 -1.98468e-14 0 0 9.82454e-28
4539 152 0.0015 0.35543 -1.80435 0 7.3692e-14 -4.97141e-13 0 8.59057e-21 3.20247e-28
10285 343 0.0015 0.434986 -1.80595 0 -8.23071e-14 1.14819e-12 0 1.24237e-20 5.12348e-27
6012 201 0.0015 0.524104 -1.80507 0 7.5956e-13 1.82524e-12 0 0 5.02458e-27