ITEM: TIMESTEP
36980
ITEM: NUMBER OF ATOMS
10500
ITEM: BOX BOUNDS pp pp pp
-1.0249999999999999e+00 1.0249999999999999e+00
-2.0000000000000000e+00 2.0000000000000000e+00
-5.0000000000000003e-02 5.0000000000000003e-02
ITEM: ATOMS id type radius x y z fx fy fz c_bendingE c_stretchingE
10321 345 0.0015 -0.0605191 -1.90326 0 -4.98028e-13 3.002e-12 0 1.57149e-20 8.15713e-27
6031 202 0.0015 -0.31342 -1.90111 0 -6.23105e-14 7.23342e-14 0 0 2.24983e-29
10322 345 0.0015 -0.061196 -1.90016 0 3.81418e-14 -2.29879e-12 0 1.57149e-20 8.70133e-27
8041 269 0.0015 0.155487 -1.90065 0 4.76341e-14 -5.5214e-13 0 0 5.77826e-28
10261 343 0.0015 0.417684 -1.90089 0 6.30966e-13 3.24276e-12 0 0 1.21893e-26
1471 50 0.0015 0.556864 -1.90052 0 2.18701e-12 2.45034e-12 0 0 1.09205e-26
10323 345 0.0015 -0.0618728 -1.89705 0 1.0202e-12 -2.39268e-12 0 1.57149e-20 3.31089e-27
1951 66 0.0015 0.0156385 -1.89738 0 -3.0689e-13 2.87812e-12 0 5.20104e-21 1.11766e-26
10262 343 0.0015 0.418405 -1.89694 0 -1.13193e-12 -5.54789e-12 0 0 1.83981e-26
1472 50 0.0015 0.559091 -1.8976 0 -3.65742e-12 -4.09107e-12 0 6.81478e-21 1.58329e-26
2641 89 0.0015 -0.570912 -1.89491 0 -6.64668e-13 5.89407e-13 0 0 1.02299e-27
1473 50 0.0015 0.561317 -1.89469 0 8.02014e-13 1.50502e-12 0 6.81478e-21 5.18119e-27
2642 89 0.0015 -0.574633 -1.89206 0 -2.6815e-13 -7.46902e-14 0 5.32605e-21 2.46865e-27
6032 202 0.0015 -0.318223 -1.89337 0 -5.93218e-13 1.02374e-12 0 0 4.14604e-27
10324 345 0.0015 -0.0625496 -1.89394 0 -6.88345e-14 -9.46293e-13 0 0 9.10947e-27
1952 66 0.0015 0.0151583 -1.8926 0 -5.02272e-14 9.48913e-13 0 5.20104e-21 3.08858e-26
8042 269 0.0015 0.154791 -1.89391 0 -4.39091e-13 4.45681e-12 0 3.6872e-21 2.95579e-26
10263 343 0.0015 0.419126 -1.89298 0 1.26763e-12 6.34775e-12 0 0 2.512e-26
3540 118 0.0015 0.637977 -1.89243 0 -4.38324e-12 -3.27697e-12 0 1.57149e-20 2.64493e-26
6061 203 0.0015 -0.387409 -1.89062 0 -5.84015e-14 -2.61853e-12 0 0 6.38976e-28
10325 345 0.0015 -0.0632265 -1.89084 0 -4.01884e-13 2.68845e-12 0 0 6.3437e-27
10231 342 0.0015 0.215 -1.89 0 -9.11974e-13 0 0 0 1.59251e-28
10232 342 0.0015 0.21569 -1.89 0 4.23831e-12 0 0 0 2.2786e-27
10233 342 0.0015 0.216379 -1.89 0 -6.59245e-12 0 0 0 4.16294e-27
10234 342 0.0015 0.217069 -1.89 0 5.6507e-12 0 0 0 3.1327e-27
10235 342 0.0015 0.217759 -1.89 0 -4.56407e-12 0 0 0 1.99911e-27
10236 342 0.0015 0.218448 -1.89 0 5.21561e-12 0 0 0 2.67615e-27
10237 342 0.0015 0.219138 -1.89 0 -6.91822e-12 0 0 0 4.65293e-27
10238 342 0.0015 0.219828 -1.89 0 6.48334e-12 0 0 0 4.18347e-27
10239 342 0.0015 0.220517 -1.89 0 -2.86102e-12 0 0 0 1.30963e-27
10240 342 0.0015 0.221207 -1.89 0 1.19463e-12 0 0 0 1.8059e-28
10241 342 0.0015 0.221897 -1.89 0 -3.11434e-12 0 0 0 1.07766e-27
10242 342 0.0015 0.222586 -1.89 0 4.60007e-12 0 0 0 2.03245e-27
10243 342 0.0015 0.223276 -1.89 0 -3.15079e-12 0 0 0 1.22473e-27
10244 342 0.0015 0.223966 -1.89 0 9.77302e-13 0 0 0 1.13987e-28
10245 342 0.0015 0.224655 -1.89 0 -7.97085e-13 0 0 0 6.95715e-29
10246 342 0.0015 0.225345 -1.89 0 7.97085e-13 0 0 0 6.95715e-29
10247 342 0.0015 0.226034 -1.89 0 -9.77302e-13 0 0 0 1.13987e-28
10248 342 0.0015 0.226724 -1.89 0 3.15079e-12 0 0 0 1.22473e-27
10249 342 0.0015 0.227414 -1.89 0 -4.60007e-12 0 0 0 2.03245e-27
10250 342 0.0015 0.228103 -1.89 0 3.11434e-12 0 0 0 1.07766e-27
10251 342 0.0015 0.228793 -1.89 0 -1.19463e-12 0 0 0 1.8059e-28
10252 342 0.0015 0.229483 -1.89 0 2.86102e-12 0 0 0 1.30963e-27
10253 342 0.0015 0.230172 -1.89 0 -6.48334e-12 0 0 0 4.18347e-27
10254 342 0.0015 0.230862 -1.89 0 6.91822e-12 0 0 0 4.65293e-27
10255 342 0.0015 0.231552 -1.89 0 -5.21561e-12 0 0 0 2.67615e-27
10256 342 0.0015 0.232241 -1.89 0 4.56407e-12 0 0 0 1.99911e-27
10257 342 0.0015 0.232931 -1.89 0 -5.6507e-12 0 0 0 3.1327e-27
10258 342 0.0015 0.233621 -1.89 0 6.59245e-12 0 0 0 4.16294e-27
10259 342 0.0015 0.23431 -1.89 0 -4.23831e-12 0 0 0 2.2786e-27
10260 342 0.0015 0.235 -1.89 0 9.11974e-13 0 0 0 1.59251e-28
6001 201 0.0015 0.490936 -1.89052 0 -8.83703e-14 -2.53496e-13 0 0 1.66618e-28
1474 50 0.0015 0.563543 -1.89178 0 1.97902e-12 6.50691e-13 0 1.36296e-20 1.74761e-27
3539 118 0.0015 0.640514 -1.89051 0 4.74556e-12 3.9988e-12 0 1.57149e-20 2.69123e-26
2643 89 0.0015 -0.578354 -1.8892 0 1.56393e-12 -9.20656e-13 0 5.32605e-21 2.17422e-27
6063 203 0.0015 -0.391043 -1.8889 0 1.508e-12 -1.21094e-12 0 0 1.46661e-27
6064 203 0.0015 -0.392859 -1.88804 0 -2.15904e-12 -1.31276e-12 0 0 1.44462e-27
6062 203 0.0015 -0.389226 -1.88976 0 6.83266e-13 4.60432e-12 0 0 6.8489e-28
10264 343 0.0015 0.419847 -1.88903 0 -1.24626e-12 -6.97004e-12 0 0 2.87378e-26
1475 50 0.0015 0.56577 -1.88887 0 -1.52036e-12 1.03281e-14 0 1.36296e-20 1.56444e-27
3538 118 0.0015 0.643052 -1.8886 0 1.12233e-12 -1.03382e-12 0 1.57149e-20 1.3407e-27
2644 89 0.0015 -0.582074 -1.88635 0 -5.46867e-13 6.91523e-13 0 5.32605e-21 7.43486e-28
6066 203 0.0015 -0.396492 -1.88631 0 4.589e-12 6.52603e-12 0 2.48474e-20 1.90456e-27
6065 203 0.0015 -0.394676 -1.88717 0 -3.10177e-12 -1.87329e-12 0 0 1.81849e-27
7981 267 0.0015 -0.194876 -1.88635 0 9.6091e-13 8.5184e-13 0 1.00459e-20 2.46523e-28
10326 345 0.0015 -0.0639033 -1.88773 0 -4.69346e-13 1.52206e-12 0 0 2.31708e-27
1953 66 0.0015 0.0146782 -1.88782 0 7.48906e-13 -7.6702e-12 0 1.04021e-20 3.96189e-26
8043 269 0.0015 0.154095 -1.88717 0 7.33876e-13 -7.2439e-12 0 3.6872e-21 5.01846e-26
3537 118 0.0015 0.645589 -1.88668 0 -3.58291e-12 6.31877e-14 0 0 3.81739e-27
6068 203 0.0015 -0.400126 -1.88459 0 -8.13628e-13 2.53632e-12 0 2.48474e-20 6.78683e-27
6067 203 0.0015 -0.398309 -1.88545 0 -3.39974e-12 -4.98346e-12 0 2.48474e-20 1.17244e-27
6033 202 0.0015 -0.323025 -1.88564 0 1.97334e-12 -3.22991e-12 0 2.74394e-21 2.00294e-26
7983 267 0.0015 -0.199527 -1.8846 0 2.40879e-12 3.08191e-12 0 2.00918e-20 4.08776e-27
7982 267 0.0015 -0.197202 -1.88548 0 -7.35834e-13 -3.18982e-12 0 1.00459e-20 9.90093e-28
10327 345 0.0015 -0.0645802 -1.88463 0 2.68326e-13 -1.45351e-12 0 0 2.334e-27
10265 343 0.0015 0.420568 -1.88507 0 1.04922e-12 6.51996e-12 0 0 2.45981e-26
1476 50 0.0015 0.567996 -1.88596 0 -8.08003e-13 -1.92223e-12 0 1.36296e-20 3.12549e-27
3536 118 0.0015 0.648126 -1.88476 0 5.80035e-12 3.10368e-12 0 0 2.22388e-26
2645 89 0.0015 -0.585795 -1.88349 0 5.55753e-13 -1.35083e-12 0 0 1.75669e-27
6071 203 0.0015 -0.405575 -1.882 0 5.41439e-12 7.79939e-12 0 0 9.15626e-27
6070 203 0.0015 -0.403759 -1.88287 0 -1.32861e-11 3.12126e-12 0 0 6.07214e-26
6069 203 0.0015 -0.401942 -1.88373 0 1.15782e-11 -5.95312e-12 0 0 5.94835e-26
7985 267 0.0015 -0.204179 -1.88284 0 4.90613e-12 1.97452e-12 0 2.00918e-20 6.25399e-27
7984 267 0.0015 -0.201853 -1.88372 0 -5.83545e-12 -1.2732e-12 0 2.00918e-20 8.78793e-27
1954 66 0.0015 0.0141981 -1.88304 0 -3.55731e-14 -4.0167e-14 0 5.20104e-21 4.01965e-26
6002 201 0.0015 0.493952 -1.88275 0 -1.08396e-13 -1.80201e-13 0 0 6.89998e-28
1477 50 0.0015 0.570222 -1.88304 0 1.46734e-12 1.69654e-12 0 6.81478e-21 3.30588e-27
3535 118 0.0015 0.650663 -1.88285 0 -4.7198e-12 -4.22689e-12 0 0 2.16711e-26
2646 89 0.0015 -0.589516 -1.88064 0 -1.23276e-12 1.86591e-12 0 0 2.93667e-27
6073 203 0.0015 -0.409209 -1.88028 0 5.1198e-12 -1.58879e-12 0 0 7.86688e-27
6072 203 0.0015 -0.407392 -1.88114 0 -5.11917e-12 -9.10902e-12 0 0 6.27327e-27
7988 267 0.0015 -0.211156 -1.8802 0 2.26568e-12 2.42441e-12 0 0 5.53516e-28
7987 267 0.0015 -0.208831 -1.88108 0 1.15978e-12 -1.50699e-12 0 0 3.56049e-27
7986 267 0.0015 -0.206505 -1.88196 0 -3.96307e-12 -1.21008e-12 0 1.00459e-20 4.14014e-27
8011 268 0.0015 -0.176367 -1.88159 0 2.03578e-13 5.79671e-13 0 0 1.37668e-27
10328 345 0.0015 -0.065257 -1.88152 0 7.93964e-14 2.30875e-13 0 0 1.26576e-28
8044 269 0.0015 0.1534 -1.88043 0 -4.64224e-13 4.4833e-12 0 3.6872e-21 2.36956e-26
10266 343 0.0015 0.421289 -1.88111 0 -9.60418e-13 -6.12949e-12 0 0 2.21259e-26
1478 50 0.0015 0.572449 -1.88013 0 -3.36343e-13 -1.17742e-13 0 0 3.12307e-28
3534 118 0.0015 0.653201 -1.88093 0 -1.81766e-12 -1.04693e-12 0 0 1.45951e-26
10292 344 0.0015 -0.465124 -1.8785 0 -3.77524e-12 2.19935e-12 0 0 1.37051e-26
10291 344 0.0015 -0.4623 -1.87941 0 3.80352e-12 -1.47947e-12 0 0 1.36744e-26
6074 203 0.0015 -0.411025 -1.87942 0 -4.86575e-13 9.96521e-12 0 0 6.26707e-27
6075 203 0.0015 -0.412842 -1.87856 0 1.77097e-12 -6.29396e-12 0 0 5.16027e-27
7990 267 0.0015 -0.215808 -1.87844 0 -5.52961e-12 1.92719e-12 0 0 1.1863e-26
7989 267 0.0015 -0.213482 -1.87932 0 1.69167e-12 -2.27525e-12 0 0 6.83672e-27
10329 345 0.0015 -0.0659339 -1.87841 0 6.56017e-13 -2.80435e-12 0 0 5.7563e-27
1955 66 0.0015 0.0137179 -1.87827 0 -8.58054e-13 9.06029e-12 0 5.20104e-21 5.63785e-26
10201 341 0.0015 0.290108 -1.87875 0 -9.39542e-14 7.89008e-13 0 0 1.18818e-27
3533 118 0.0015 0.655738 -1.87902 0 2.13285e-12 2.89591e-12 0 0 1.22891e-26
2647 89 0.0015 -0.593237 -1.87778 0 4.71786e-13 -7.62282e-13 0 0 1.21346e-27
10294 344 0.0015 -0.470773 -1.87669 0 5.06648e-12 -2.10485e-12 0 0 1.2606e-26
10293 344 0.0015 -0.467948 -1.87759 0 -3.11043e-12 -3.66939e-15 0 0 8.22479e-27
6077 203 0.0015 -0.416475 -1.87683 0 4.9356e-12 3.12989e-12 0 0 2.71421e-27
6076 203 0.0015 -0.414658 -1.87769 0 -5.52534e-12 -2.89754e-12 0 0 4.03856e-27
6034 202 0.0015 -0.327828 -1.87791 0 -1.99915e-12 3.22781e-12 0 5.48788e-21 2.01062e-26
7992 267 0.0015 -0.22046 -1.87668 0 1.00301e-12 2.80402e-13 0 0 2.49033e-28
7991 267 0.0015 -0.218134 -1.87756 0 2.19245e-12 -1.06927e-12 0 0 5.43573e-27
10267 343 0.0015 0.42201 -1.87716 0 2.15296e-13 1.69302e-12 0 0 8.18376e-27
1479 50 0.0015 0.574675 -1.87722 0 -8.98621e-13 -6.30812e-13 0 0 7.53928e-28
3532 118 0.0015 0.658275 -1.8771 0 1.40487e-12 -8.91367e-13 0 1.57149e-20 1.51294e-28
2648 89 0.0015 -0.596958 -1.87493 0 -4.6195e-13 3.67749e-13 0 0 6.74744e-28
10296 344 0.0015 -0.476421 -1.87487 0 -5.3003e-12 9.8919e-13 0 0 2.01935e-26
10295 344 0.0015 -0.473597 -1.87578 0 -1.37319e-12 1.9314e-12 0 0 4.55449e-27
6080 203 0.0015 -0.421925 -1.87425 0 -1.35121e-11 -4.59901e-12 0 4.96948e-20 2.92821e-26
6079 203 0.0015 -0.420108 -1.87511 0 6.10351e-12 -9.00894e-14 0 2.48474e-20 1.40692e-26
6078 203 0.0015 -0.418291 -1.87597 0 -1.68078e-12 1.41367e-12 0 0 1.53539e-27
7995 267 0.0015 -0.227437 -1.87404 0 4.33643e-12 4.04292e-14 0 1.00459e-20 5.64766e-27
7994 267 0.0015 -0.225111 -1.87492 0 -3.86067e-12 1.22738e-12 0 1.00459e-20 5.657e-27
7993 267 0.0015 -0.222785 -1.8758 0 1.3455e-12 -6.08192e-13 0 1.00459e-20 2.81227e-27
10330 345 0.0015 -0.0666107 -1.87531 0 -1.65621e-12 6.76594e-12 0 0 2.30139e-26
6003 201 0.0015 0.496967 -1.87498 0 -1.3967e-13 -4.98466e-13 0 0 2.79543e-27
1480 50 0.0015 0.576901 -1.87431 0 2.40532e-13 -1.57949e-12 0 0 4.54892e-27
3531 118 0.0015 0.660812 -1.87519 0 -6.088e-13 9.1113e-13 0 1.57149e-20 2.08839e-28
2649 89 0.0015 -0.600679 -1.87207 0 -1.79671e-13 1.79232e-13 0 0 1.86025e-27
10299 344 0.0015 -0.484893 -1.87215 0 5.53007e-12 -1.43506e-12 0 1.68424e-20 1.87268e-26
10298 344 0.0015 -0.482069 -1.87306 0 -1.09021e-11 3.81662e-12 0 0 5.70143e-26
10297 344 0.0015 -0.479245 -1.87396 0 1.11551e-11 -3.95697e-12 0 0 5.92552e-26
6082 203 0.0015 -0.425558 -1.87252 0 -7.89171e-12 -5.04839e-12 0 2.48474e-20 8.27614e-27
6081 203 0.0015 -0.423741 -1.87338 0 1.25241e-11 5.75626e-12 0 4.96948e-20 2.26231e-26
7997 267 0.0015 -0.232089 -1.87228 0 7.05765e-13 4.29501e-12 0 1.00459e-20 7.80137e-28
7996 267 0.0015 -0.229763 -1.87316 0 -3.47048e-12 -3.1208e-12 0 0 2.66458e-27
10331 345 0.0015 -0.0672875 -1.8722 0 2.2154e-12 -9.91283e-12 0 0 4.62869e-26
1956 66 0.0015 0.0132378 -1.87349 0 8.69744e-13 -8.90753e-12 0 0 5.48395e-26
8045 269 0.0015 0.152704 -1.87369 0 1.2372e-13 -1.05433e-12 0 0 2.50599e-27
10202 341 0.0015 0.289307 -1.87202 0 1.92005e-14 -1.17455e-13 0 0 2.04734e-27
4531 152 0.0015 0.366216 -1.8733 0 -1.65999e-13 9.96605e-13 0 0 2.47331e-27
10268 343 0.0015 0.422731 -1.8732 0 -5.44186e-15 4.32549e-13 0 1.24237e-20 1.04291e-27
3530 118 0.0015 0.66335 -1.87327 0 2.22016e-13 1.60891e-14 0 3.14298e-20 4.01257e-28
10301 344 0.0015 -0.490541 -1.87033 0 -5.94982e-13 1.43457e-12 0 3.36849e-20 1.56178e-27
10300 344 0.0015 -0.487717 -1.87124 0 5.81707e-14 -7.3949e-13 0 3.36849e-20 2.38815e-27
6084 203 0.0015 -0.429191 -1.8708 0 -9.47716e-12 7.79792e-13 0 0 3.531e-26
6083 203 0.0015 -0.427374 -1.87166 0 5.02009e-12 5.03397e-12 0 0 1.61464e-27
6035 202 0.0015 -0.332631 -1.87017 0 1.4609e-12 -2.33185e-12 0 8.23182e-21 9.61189e-27
7999 267 0.0015 -0.23674 -1.87052 0 -4.49625e-14 -4.2742e-12 0 1.00459e-20 1.05764e-27
7998 267 0.0015 -0.234415 -1.8714 0 5.66408e-13 -7.24218e-13 0 1.00459e-20 8.02779e-28
1481 50 0.0015 0.579128 -1.8714 0 9.29128e-13 3.89725e-12 0 0 6.84683e-27
3529 118 0.0015 0.665887 -1.87136 0 -1.22846e-12 -1.95906e-12 0 1.57149e-20 2.53841e-27
2650 89 0.0015 -0.6044 -1.86922 0 2.59523e-12 -1.94459e-12 0 0 7.98485e-27
10303 344 0.0015 -0.49619 -1.86852 0 -1.02764e-12 2.54318e-12 0 1.68424e-20 3.39933e-27
10302 344 0.0015 -0.493366 -1.86943 0 -1.09584e-12 -1.48391e-12 0 1.68424e-20 1.45281e-28
6087 203 0.0015 -0.434641 -1.86821 0 -2.35681e-12 3.11849e-12 0 2.48474e-20 2.23259e-26
6085 203 0.0015 -0.431008 -1.86994 0 1.61242e-11 -7.4178e-12 0 0 8.90475e-26
6086 203 0.0015 -0.432824 -1.86908 0 -1.14535e-11 4.43457e-12 0 0 5.74924e-26
8001 267 0.0015 -0.241392 -1.86876 0 2.01052e-14 -5.5999e-12 0 4.01836e-20 2.34915e-27
8000 267 0.0015 -0.239066 -1.86964 0 -8.88661e-13 6.26305e-12 0 2.00918e-20 3.3417e-27
8012 268 0.0015 -0.171924 -1.86923 0 -3.04821e-13 -8.8316e-13 0 0 1.74981e-27
10332 345 0.0015 -0.0679644 -1.86909 0 -1.25101e-12 6.47496e-12 0 0 2.95893e-26
1957 66 0.0015 0.0127576 -1.86871 0 -5.73934e-13 6.0141e-12 0 0 2.57605e-26
10269 343 0.0015 0.423451 -1.86924 0 3.92506e-13 5.70927e-13 0 2.48474e-20 2.55906e-28
1482 50 0.0015 0.581354 -1.86848 0 1.84479e-13 -1.87329e-12 0 0 3.12455e-27
3528 118 0.0015 0.668424 -1.86944 0 3.57527e-12 3.90602e-12 0 1.57149e-20 1.37497e-26
2651 89 0.0015 -0.608121 -1.86636 0 -5.39993e-12 4.12145e-12 0 0 3.32998e-26
10305 344 0.0015 -0.501838 -1.8667 0 -1.97739e-12 3.61426e-12 0 1.68424e-20 3.85276e-27
10304 344 0.0015 -0.499014 -1.86761 0 2.80915e-12 -3.78918e-12 0 1.68424e-20 6.07065e-27
6089 203 0.0015 -0.438274 -1.86649 0 -2.04564e-12 3.82871e-12 0 2.48474e-20 6.8686e-27
6088 203 0.0015 -0.436457 -1.86735 0 7.52776e-12 -5.97169e-12 0 2.48474e-20 2.60091e-26
8004 267 0.0015 -0.248369 -1.86612 0 3.81562e-12 2.18974e-13 0 0 1.03769e-26
8003 267 0.0015 -0.246044 -1.867 0 -9.38044e-12 -1.30424e-12 0 2.00918e-20 2.3986e-26
8002 267 0.0015 -0.243718 -1.86788 0 5.94774e-12 3.59567e-12 0 4.01836e-20 1.37205e-26
8046 269 0.0015 0.152008 -1.86695 0 2.06238e-13 -2.257e-12 0 0 8.93526e-27
6004 201 0.0015 0.499982 -1.86721 0 6.92455e-13 1.85431e-12 0 5.99535e-21 4.5338e-27
3527 118 0.0015 0.670962 -1.86752 0 -1.18798e-12 -1.13992e-12 0 0 1.49232e-26
10307 344 0.0015 -0.507486 -1.86489 0 2.03512e-12 1.8554e-13 0 1.68424e-20 2.27713e-27
10306 344 0.0015 -0.504662 -1.8658 0 3.6076e-13 -1.93088e-12 0 1.68424e-20 1.17202e-27
6090 203 0.0015 -0.440091 -1.86563 0 -5.31484e-13 -1.07949e-12 0 0 1.70477e-31
8006 267 0.0015 -0.253021 -1.86436 0 -1.22684e-12 -9.56455e-13 0 2.00918e-20 7.72212e-28
8005 267 0.0015 -0.250695 -1.86524 0 1.65106e-12 4.0652e-13 0 1.00459e-20 8.30615e-28
10333 345 0.0015 -0.0686412 -1.86599 0 -1.06052e-12 3.91461e-12 0 0 2.20527e-26
10203 341 0.0015 0.288506 -1.8653 0 -1.11241e-13 7.72571e-13 0 0 4.84855e-27
4532 152 0.0015 0.364868 -1.86469 0 -2.26387e-14 2.82128e-13 0 0 6.52155e-27
10270 343 0.0015 0.424172 -1.86529 0 2.79747e-13 2.95495e-12 0 2.48474e-20 1.11412e-26
1483 50 0.0015 0.58358 -1.86557 0 1.21519e-12 3.06345e-12 0 0 1.26897e-26
3526 118 0.0015 0.673499 -1.86561 0 -6.13296e-12 -5.28454e-12 0 0 3.63678e-26
2652 89 0.0015 -0.611842 -1.86351 0 5.60958e-12 -4.6679e-12 0 5.32605e-21 3.65904e-26
10310 344 0.0015 -0.515959 -1.86217 0 9.50576e-13 5.09231e-13 0 0 1.33939e-27
10309 344 0.0015 -0.513134 -1.86307 0 -7.64062e-13 6.68688e-13 0 0 1.23277e-27
10308 344 0.0015 -0.51031 -1.86398 0 -2.03021e-12 -8.02735e-14 0 1.68424e-20 2.28841e-27
6036 202 0.0015 -0.337434 -1.86244 0 -1.15994e-12 1.83156e-12 0 8.23182e-21 6.66852e-27
8008 267 0.0015 -0.257673 -1.8626 0 1.35398e-12 -1.62612e-12 0 2.00918e-20 1.17517e-27
8007 267 0.0015 -0.255347 -1.86348 0 -7.13072e-13 1.20383e-12 0 3.01377e-20 5.55896e-28
10334 345 0.0015 -0.0693181 -1.86288 0 1.26276e-12 -5.44067e-12 0 1.57149e-20 2.17733e-26
1958 66 0.0015 0.0122775 -1.86393 0 1.74482e-13 -2.20192e-12 0 0 7.02224e-27
1484 50 0.0015 0.585807 -1.86266 0 -1.61622e-12 -3.75943e-12 0 0 1.2781e-26
3525 118 0.0015 0.676036 -1.86369 0 6.13296e-12 5.28454e-12 0 0 3.63678e-26
2653 89 0.0015 -0.615563 -1.86065 0 -8.82171e-13 1.74159e-12 0 5.32605e-21 1.14275e-26
10312 344 0.0015 -0.521607 -1.86035 0 -1.82559e-12 2.14944e-12 0 0 2.36433e-27
10311 344 0.0015 -0.518783 -1.86126 0 1.03192e-12 -2.14747e-12 0 0 1.3381e-27
8010 267 0.0015 -0.262324 -1.86085 0 1.5252e-12 -9.22282e-13 0 0 2.12223e-27
8009 267 0.0015 -0.259998 -1.86172 0 -2.20714e-12 1.86988e-12 0 1.00459e-20 2.77621e-27
8047 269 0.0015 0.151313 -1.86021 0 -2.93976e-13 3.19758e-12 0 0 1.09311e-26
10271 343 0.0015 0.424893 -1.86133 0 -7.70345e-13 -4.46126e-12 0 2.48474e-20 1.32106e-26
3524 118 0.0015 0.678573 -1.86178 0 1.18798e-12 1.13992e-12 0 0 1.49232e-26
10314 344 0.0015 -0.527255 -1.85854 0 1.50292e-12 4.08441e-13 0 0 1.24914e-27
10313 344 0.0015 -0.524431 -1.85944 0 7.73857e-13 -1.2676e-12 0 0 1.1946e-27
10335 345 0.0015 -0.0699949 -1.85978 0 2.94925e-13 -8.00412e-13 0 3.14298e-20 2.39953e-27
1959 66 0.0015 0.0117974 -1.85915 0 2.66111e-13 -2.26507e-12 0 0 6.44311e-27
4771 160 0.0015 0.0785585 -1.85825 0 2.83529e-14 -1.03992e-12 0 0 2.76607e-27
10204 341 0.0015 0.287705 -1.85857 0 4.95993e-13 -3.80481e-12 0 0 1.46561e-26
6005 201 0.0015 0.502997 -1.85945 0 3.12004e-13 8.00954e-13 0 5.99535e-21 1.01675e-26
1485 50 0.0015 0.588033 -1.85975 0 -4.03407e-12 -3.5097e-12 0 0 3.32097e-26
3523 118 0.0015 0.681111 -1.85986 0 -3.57527e-12 -3.90602e-12 0 1.57149e-20 1.37497e-26
2654 89 0.0015 -0.619284 -1.8578 0 -6.95184e-13 -1.05032e-12 0 5.32605e-21 2.95604e-27
10316 344 0.0015 -0.532903 -1.85672 0 -9.65898e-14 9.7858e-13 0 0 1.07814e-28
10315 344 0.0015 -0.530079 -1.85763 0 -1.10548e-12 -6.01664e-13 0 0 1.35127e-27
8013 268 0.0015 -0.167482 -1.85688 0 -9.924e-14 -2.49878e-13 0 1.90242e-21 1.63661e-27
10336 345 0.0015 -0.0706718 -1.85667 0 -1.11094e-12 3.63723e-12 0 4.71447e-20 6.60739e-27
4533 152 0.0015 0.36352 -1.85607 0 2.71765e-13 -1.81424e-12 0 0 4.75988e-27
10272 343 0.0015 0.425614 -1.85738 0 4.11803e-13 1.77085e-12 0 2.48474e-20 2.32905e-27
1486 50 0.0015 0.59026 -1.85684 0 4.03407e-12 3.5097e-12 0 0 3.32097e-26
3522 118 0.0015 0.683648 -1.85795 0 1.22846e-12 1.95906e-12 0 1.57149e-20 2.53841e-27
3521 118 0.0015 0.686185 -1.85603 0 -2.22016e-13 -1.60891e-14 0 3.14298e-20 4.01257e-28
2655 89 0.0015 -0.623004 -1.85494 0 -6.44359e-13 1.93857e-12 0 0 2.04298e-27
10318 344 0.0015 -0.538552 -1.85491 0 8.27171e-14 -2.96623e-13 0 3.36849e-20 2.82751e-27
10317 344 0.0015 -0.535727 -1.85581 0 -1.46611e-12 -1.13992e-13 0 1.68424e-20 1.59708e-27
6037 202 0.0015 -0.342237 -1.85471 0 8.69418e-13 -1.39101e-12 0 5.48788e-21 3.46931e-27
1960 66 0.0015 0.0113172 -1.85437 0 -5.31918e-13 4.93072e-12 0 5.20104e-21 1.66202e-26
3520 118 0.0015 0.688722 -1.85412 0 6.088e-13 -9.1113e-13 0 1.57149e-20 2.08839e-28
2656 89 0.0015 -0.626725 -1.85209 0 -4.8444e-14 -7.23122e-13 0 0 4.86001e-28
10320 344 0.0015 -0.5442 -1.85309 0 -3.22113e-12 6.27326e-13 0 1.68424e-20 8.74947e-27
10319 344 0.0015 -0.541376 -1.854 0 4.5059e-12 -6.24697e-13 0 3.36849e-20 9.98069e-27
10337 345 0.0015 -0.0713486 -1.85356 0 8.83913e-13 -2.52238e-12 0 3.14298e-20 4.71881e-27
8048 269 0.0015 0.150617 -1.85348 0 -8.31651e-14 3.97766e-13 0 3.6872e-21 5.90167e-27
10273 343 0.0015 0.426335 -1.85342 0 4.65726e-13 3.18588e-12 0 2.48474e-20 1.51708e-26
1487 50 0.0015 0.592486 -1.85392 0 1.61622e-12 3.75943e-12 0 0 1.2781e-26
3519 118 0.0015 0.69126 -1.8522 0 -1.40487e-12 8.91367e-13 0 1.57149e-20 1.51294e-28
10338 345 0.0015 -0.0720254 -1.85046 0 9.93726e-13 -4.81887e-12 0 1.57149e-20 2.48449e-26
10205 341 0.0015 0.286904 -1.85184 0 -3.74696e-13 2.64436e-12 0 0 1.08243e-26
6006 201 0.0015 0.506013 -1.85168 0 -1.5657e-12 -3.98873e-12 0 5.99535e-21 2.16521e-26
1488 50 0.0015 0.594712 -1.85101 0 -1.21519e-12 -3.06345e-12 0 0 1.26897e-26
3518 118 0.0015 0.693797 -1.85028 0 -2.13285e-12 -2.89591e-12 0 0 1.22891e-26
2657 89 0.0015 -0.630446 -1.84923 0 4.10312e-13 -2.76197e-13 0 0 1.69896e-28
1961 66 0.0015 0.0108371 -1.84959 0 3.14613e-13 -2.6993e-12 0 1.04021e-20 1.01894e-26
4772 160 0.0015 0.0782973 -1.84905 0 -3.11717e-14 1.10384e-12 0 0 2.77653e-27
10274 343 0.0015 0.427056 -1.84946 0 -1.37309e-12 -8.00416e-12 0 1.24237e-20 3.71917e-26
1489 50 0.0015 0.596939 -1.8481 0 -1.84479e-13 1.87329e-12 0 0 3.12455e-27
3517 118 0.0015 0.696334 -1.84837 0 1.81766e-12 1.04693e-12 0 0 1.45951e-26
2658 89 0.0015 -0.634167 -1.84638 0 -5.39187e-13 9.5114e-13 0 0 7.55497e-28
6038 202 0.0015 -0.34704 -1.84697 0 -1.25414e-12 2.04095e-12 0 2.74394e-21 7.60364e-27
10339 345 0.0015 -0.0727023 -1.84735 0 -1.08914e-12 3.89602e-12 0 0 2.61087e-26
8049 269 0.0015 0.149922 -1.84674 0 1.15273e-13 -7.61546e-13 0 3.6872e-21 4.73196e-27
6541 219 0.0015 0.213251 -1.84656 0 9.49057e-16 1.51675e-14 0 0 4.46918e-31
4534 152 0.0015 0.362172 -1.84745 0 2.31751e-14 -1.97269e-13 0 0 2.04002e-27
3516 118 0.0015 0.698871 -1.84645 0 4.7198e-12 4.22689e-12 0 0 2.16711e-26
8014 268 0.0015 -0.163039 -1.84452 0 1.11842e-13 3.16227e-13 0 1.90242e-21 1.4972e-27
10340 345 0.0015 -0.0733791 -1.84424 0 -4.56294e-13 3.14735e-12 0 0 4.64018e-27
1962 66 0.0015 0.010357 -1.84481 0 -1.26639e-13 9.38966e-13 0 1.56031e-20 1.31811e-27
10206 341 0.0015 0.286103 -1.84511 0 -8.80906e-14 1.04721e-12 0 0 3.53467e-27
10275 343 0.0015 0.427777 -1.84551 0 8.34261e-13 4.68698e-12 0 0 2.23379e-26
1490 50 0.0015 0.599165 -1.84519 0 -9.29128e-13 -3.89725e-12 0 0 6.84683e-27
3515 118 0.0015 0.701409 -1.84454 0 -5.80035e-12 -3.10368e-12 0 0 2.22388e-26
2659 89 0.0015 -0.637888 -1.84352 0 -5.75356e-14 -6.90385e-13 0 0 7.61803e-28
6007 201 0.0015 0.509028 -1.84391 0 1.25754e-12 3.13402e-12 0 0 1.57907e-26
1491 50 0.0015 0.601391 -1.84228 0 -2.40532e-13 1.57949e-12 0 0 4.54892e-27
3514 118 0.0015 0.703946 -1.84262 0 3.58291e-12 -6.31877e-14 0 0 3.81739e-27
2660 89 0.0015 -0.641609 -1.84066 0 1.24928e-12 -7.09013e-13 0 1.59781e-20 1.71784e-27
10341 345 0.0015 -0.074056 -1.84114 0 -2.86206e-13 1.58922e-12 0 1.57149e-20 1.42809e-26
1963 66 0.0015 0.00987681 -1.84004 0 4.83502e-13 -4.78922e-12 0 1.04021e-20 2.07902e-26
10276 343 0.0015 0.428498 -1.84155 0 -8.34261e-13 -4.68698e-12 0 0 2.23379e-26
3513 118 0.0015 0.706483 -1.84071 0 -1.12233e-12 1.03382e-12 0 1.57149e-20 1.3407e-27
6039 202 0.0015 -0.351842 -1.83924 0 -1.64232e-14 1.96824e-14 0 0 1.09716e-26
10342 345 0.0015 -0.0747328 -1.83803 0 1.16892e-12 -6.42641e-12 0 1.57149e-20 1.89445e-26
4773 160 0.0015 0.0780361 -1.83985 0 -5.90652e-15 4.0587e-13 0 2.71488e-21 5.74677e-28
8050 269 0.0015 0.149226 -1.84 0 1.38259e-13 -1.61776e-12 0 3.6872e-21 2.55695e-27
6542 219 0.0015 0.21269 -1.83947 0 2.57072e-14 -3.54318e-13 0 0 2.2898e-28
10207 341 0.0015 0.285302 -1.83839 0 3.02117e-13 -2.57457e-12 0 0 6.32988e-27
4535 152 0.0015 0.360823 -1.83883 0 -2.44216e-13 1.78794e-12 0 0 4.07064e-27
1492 50 0.0015 0.603618 -1.83936 0 8.98621e-13 6.30812e-13 0 0 7.53928e-28
3512 118 0.0015 0.70902 -1.83879 0 -4.74556e-12 -3.9988e-12 0 1.57149e-20 2.69123e-26
2661 89 0.0015 -0.64533 -1.83781 0 3.23095e-13 2.88189e-13 0 2.13042e-20 3.41001e-27
10277 343 0.0015 0.429219 -1.8376 0 1.37309e-12 8.00416e-12 0 1.24237e-20 3.71917e-26
6008 201 0.0015 0.512043 -1.83614 0 -1.08058e-12 -2.71092e-12 0 0 1.1105e-26
1493 50 0.0015 0.605844 -1.83645 0 3.36343e-13 1.17742e-13 0 0 3.12307e-28
3511 118 0.0015 0.711558 -1.83688 0 4.38324e-12 3.27697e-12 0 1.57149e-20 2.64493e-26
2662 89 0.0015 -0.649051 -1.83495 0 -3.2303e-12 1.45846e-12 0 2.66302e-20 8.52047e-27
10343 345 0.0015 -0.0754097 -1.83493 0 -5.81067e-13 2.81407e-12 0 1.57149e-20 7.93133e-27
1964 66 0.0015 0.00939668 -1.83526 0 -4.51617e-13 4.88506e-12 0 5.20104e-21 2.10456e-26
2663 89 0.0015 -0.652772 -1.8321 0 1.89728e-12 -5.52385e-13 0 1.06521e-20 6.93077e-27
10171 340 0.0015 -0.234195 -1.83312 0 8.21124e-13 -1.14105e-12 0 0 4.29123e-27
8015 268 0.0015 -0.158597 -1.83216 0 4.085e-13 1.12487e-12 0 3.80484e-21 3.48131e-27
8051 269 0.0015 0.14853 -1.83326 0 -8.75004e-14 1.10486e-12 0 0 1.75999e-27
6543 219 0.0015 0.212128 -1.83239 0 -5.81338e-14 6.2813e-13 0 0 3.95245e-28
10278 343 0.0015 0.429939 -1.83364 0 -4.65726e-13 -3.18588e-12 0 2.48474e-20 1.51708e-26
1494 50 0.0015 0.60807 -1.83354 0 -1.46734e-12 -1.69654e-12 0 6.81478e-21 3.30588e-27
6040 202 0.0015 -0.356645 -1.83151 0 1.85541e-12 -2.99125e-12 0 0 1.60471e-26
10344 345 0.0015 -0.0760865 -1.83182 0 -5.55216e-13 3.58137e-12 0 0 1.08082e-26
1965 66 0.0015 0.00891654 -1.83048 0 -3.27721e-14 -4.39937e-13 0 0 2.13551e-27
4774 160 0.0015 0.0777749 -1.83066 0 4.3426e-14 -1.77332e-12 0 2.71488e-21 4.91021e-27
10208 341 0.0015 0.284501 -1.83166 0 -1.77528e-13 1.62545e-12 0 0 3.22798e-27
4536 152 0.0015 0.359475 -1.83021 0 1.47508e-13 -1.35744e-12 0 0 2.96054e-27
1495 50 0.0015 0.610297 -1.83063 0 8.08003e-13 1.92223e-12 0 1.36296e-20 3.12549e-27
2664 89 0.0015 -0.656493 -1.82924 0 -6.82384e-13 -2.39613e-14 0 5.32605e-21 1.41703e-27
10345 345 0.0015 -0.0767633 -1.82871 0 -1.92509e-13 -6.45566e-13 0 0 1.82555e-26
10279 343 0.0015 0.43066 -1.82968 0 -4.11803e-13 -1.77085e-12 0 2.48474e-20 2.32905e-27
6009 201 0.0015 0.515058 -1.82837 0 1.87857e-12 4.83939e-12 0 0 3.29532e-26
2665 89 0.0015 -0.660213 -1.82639 0 1.99564e-12 -1.06479e-12 0 0 3.31329e-27
10172 340 0.0015 -0.238704 -1.82673 0 -1.92653e-12 2.64585e-12 0 0 1.18595e-26
8052 269 0.0015 0.147835 -1.82652 0 -7.77941e-14 5.31416e-13 0 0 9.39414e-28
1496 50 0.0015 0.612523 -1.82772 0 1.52036e-12 -1.03281e-14 0 1.36296e-20 1.56444e-27
10346 345 0.0015 -0.0774402 -1.82561 0 2.58554e-12 -9.40685e-12 0 0 4.87176e-26
1966 66 0.0015 0.0084364 -1.8257 0 1.71738e-13 -9.38677e-13 0 5.20104e-21 6.85234e-28
6544 219 0.0015 0.211567 -1.8253 0 4.4843e-15 1.62833e-13 0 0 5.71094e-28
10209 341 0.0015 0.2837 -1.82493 0 9.9488e-14 -1.11767e-12 0 0 1.30344e-27
10280 343 0.0015 0.431381 -1.82573 0 7.70345e-13 4.46126e-12 0 2.48474e-20 1.32106e-26
1497 50 0.0015 0.614749 -1.8248 0 -1.97902e-12 -6.50691e-13 0 1.36296e-20 1.74761e-27
2666 89 0.0015 -0.663934 -1.82353 0 -1.42686e-12 6.53096e-13 0 0 2.21368e-27
6041 202 0.0015 -0.361448 -1.82377 0 -1.46605e-12 2.36135e-12 0 0 1.18703e-26
10347 345 0.0015 -0.078117 -1.8225 0 -1.95503e-12 5.77791e-12 0 0 4.17856e-26
2667 89 0.0015 -0.667655 -1.82068 0 8.50401e-13 -1.36829e-13 0 0 4.17371e-28
10173 340 0.0015 -0.243212 -1.82034 0 1.69137e-12 -2.22762e-12 0 0 9.44016e-27
1967 66 0.0015 0.00795626 -1.82092 0 -1.76289e-13 1.47809e-12 0 5.20104e-21 2.00274e-27
4775 160 0.0015 0.0775136 -1.82146 0 -4.99068e-14 1.84647e-12 0 2.71488e-21 5.09999e-27
4537 152 0.0015 0.358127 -1.82159 0 2.39654e-14 2.30723e-13 0 0 2.32235e-28
10281 343 0.0015 0.432102 -1.82177 0 -2.79747e-13 -2.95495e-12 0 2.48474e-20 1.11412e-26
6010 201 0.0015 0.518074 -1.8206 0 -2.21927e-12 -5.68528e-12 0 0 4.32299e-26
1498 50 0.0015 0.616976 -1.82189 0 -8.02014e-13 -1.50502e-12 0 6.81478e-21 5.18119e-27
8016 268 0.0015 -0.154154 -1.81981 0 -2.47364e-13 -6.90026e-13 0 1.90242e-21 3.40931e-27
10348 345 0.0015 -0.0787939 -1.81939 0 2.40391e-13 9.6248e-13 0 0 5.40152e-28
8053 269 0.0015 0.147139 -1.81978 0 2.64558e-13 -2.32871e-12 0 0 6.0425e-27
6545 219 0.0015 0.211005 -1.81821 0 4.5403e-14 -7.2034e-13 0 3.51396e-21 5.47427e-28
10210 341 0.0015 0.282899 -1.8182 0 4.85472e-15 -2.13516e-14 0 3.6872e-21 2.11789e-27
1499 50 0.0015 0.619202 -1.81898 0 3.65742e-12 4.09107e-12 0 6.81478e-21 1.58329e-26
2668 89 0.0015 -0.671376 -1.81782 0 -8.77289e-13 -2.31208e-13 0 0 3.38686e-28
6042 202 0.0015 -0.366251 -1.81604 0 6.29124e-13 -1.03131e-12 0 0 1.94566e-27
10349 345 0.0015 -0.0794707 -1.81629 0 -8.90516e-13 3.65759e-12 0 0 1.33003e-26
1968 66 0.0015 0.00747613 -1.81614 0 -8.1187e-14 4.91039e-13 0 1.04021e-20 5.66785e-27
10282 343 0.0015 0.432823 -1.81781 0 -3.92506e-13 -5.70927e-13 0 2.48474e-20 2.55906e-28
1500 50 0.0015 0.621428 -1.81607 0 -2.18701e-12 -2.45034e-12 0 0 1.09205e-26
2669 89 0.0015 -0.675097 -1.81497 0 1.32559e-12 -1.28086e-13 0 0 1.52825e-27
5941 199 0.0015 0.740778 -1.81551 0 -6.01686e-13 -2.44116e-12 0 0 1.68669e-26
2670 89 0.0015 -0.678818 -1.81211 0 -1.01018e-12 4.60939e-13 0 0 1.5253e-27
10174 340 0.0015 -0.24772 -1.81396 0 -1.2092e-12 1.49975e-12 0 0 4.01808e-27
10350 345 0.0015 -0.0801475 -1.81318 0 8.15094e-13 -3.79252e-12 0 0 1.32885e-26
4776 160 0.0015 0.0772524 -1.81226 0 1.63616e-14 -6.72421e-13 0 0 7.96842e-28
8054 269 0.0015 0.146443 -1.81304 0 -3.74075e-13 3.29936e-12 0 0 1.03736e-26
4538 152 0.0015 0.356779 -1.81297 0 4.56738e-13 -3.03087e-12 0 5.72705e-21 2.39199e-26
10283 343 0.0015 0.433544 -1.81386 0 5.44186e-15 -4.32549e-13 0 1.24237e-20 1.04291e-27
6011 201 0.0015 0.521089 -1.81283 0 1.71853e-12 4.22002e-12 0 0 2.57589e-26
1969 66 0.0015 0.00699599 -1.81136 0 8.29654e-13 -7.82511e-12 0 1.04021e-20 5.48114e-26
6546 219 0.0015 0.210443 -1.81113 0 -9.33147e-14 1.26191e-12 0 7.02791e-21 2.10276e-27
10211 341 0.0015 0.282098 -1.81148 0 -1.03829e-13 1.32951e-12 0 7.37441e-21 1.70437e-27
6043 202 0.0015 -0.371054 -1.8083 0 -4.05831e-13 6.70946e-13 0 0 8.02828e-28
10284 343 0.0015 0.434265 -1.8099 0 -2.15296e-13 -1.69302e-12 0 0 8.18376e-27
10175 340 0.0015 -0.252228 -1.80757 0 2.84399e-13 -2.95483e-13 0 0 2.89888e-27
8017 268 0.0015 -0.149712 -1.80745 0 -3.18488e-13 -8.84312e-13 0 1.90242e-21 2.10192e-27
1970 66 0.0015 0.00651585 -1.80658 0 -9.51871e-13 9.44372e-12 0 1.04021e-20 6.56181e-26
8055 269 0.0015 0.145748 -1.8063 0 4.32275e-13 -3.80512e-12 0 0 1.40301e-26
5942 199 0.0015 0.743061 -1.80618 0 8.82827e-13 3.56023e-12 0 0 2.04191e-26
6547 219 0.0015 0.209882 -1.80404 0 -5.10551e-14 5.21619e-13 0 7.02791e-21 6.52334e-27
10212 341 0.0015 0.281297 -1.80475 0 -2.20081e-13 1.1914e-12 0 7.37441e-21 6.58109e-27