ITEM: TIMESTEP
82560
ITEM: NUMBER OF ATOMS
10500
ITEM: BOX BOUNDS pp pp pp
-1.0249999999999999e+00 1.0249999999999999e+00
-2.0000000000000000e+00 2.0000000000000000e+00
-5.0000000000000003e-02 5.0000000000000003e-02
ITEM: ATOMS id type radius x y z fx fy fz c_bendingE c_stretchingE
10321 345 0.0015 -0.0605191 -1.90326 0 -1.2546e-13 8.90805e-13 0 0 7.10706e-28
6031 202 0.0015 -0.31342 -1.90111 0 2.11688e-12 -3.40119e-12 0 0 4.05854e-26
10322 345 0.0015 -0.061196 -1.90016 0 -1.0933e-13 -8.57743e-14 0 0 1.32874e-27
8041 269 0.0015 0.155487 -1.90065 0 -3.0879e-13 3.08392e-12 0 0 1.8077e-26
10261 343 0.0015 0.417684 -1.90089 0 -6.40297e-13 -3.90582e-12 0 1.24237e-20 1.74935e-26
1471 50 0.0015 0.556864 -1.90052 0 -3.58491e-12 -4.30184e-12 0 0 3.18722e-26
10323 345 0.0015 -0.0618728 -1.89705 0 2.64284e-12 -1.24999e-11 0 0 1.26503e-25
1951 66 0.0015 0.0156385 -1.89738 0 2.48201e-13 -2.54865e-12 0 5.20104e-21 8.74817e-27
10262 343 0.0015 0.418405 -1.89694 0 1.34974e-12 9.3318e-12 0 1.24237e-20 5.08585e-26
1472 50 0.0015 0.559091 -1.8976 0 2.44517e-12 2.0983e-12 0 0 3.7948e-26
2641 89 0.0015 -0.570912 -1.89491 0 -3.25842e-14 1.12e-13 0 0 1.15211e-29
1473 50 0.0015 0.561317 -1.89469 0 7.60267e-13 2.31485e-12 0 0 6.09639e-27
2642 89 0.0015 -0.574633 -1.89206 0 1.99627e-12 -1.80271e-12 0 0 8.73161e-27
6032 202 0.0015 -0.318223 -1.89337 0 -3.87201e-12 6.21912e-12 0 2.74394e-21 6.8456e-26
10324 345 0.0015 -0.0625496 -1.89394 0 -3.45169e-12 1.74973e-11 0 0 1.56538e-25
1952 66 0.0015 0.0151583 -1.8926 0 -1.24265e-13 1.39217e-12 0 5.20104e-21 1.05529e-26
8042 269 0.0015 0.154791 -1.89391 0 2.78469e-13 -2.92198e-12 0 0 1.81278e-26
10263 343 0.0015 0.419126 -1.89298 0 -7.45424e-13 -8.18718e-12 0 1.24237e-20 4.16472e-26
3540 118 0.0015 0.637977 -1.89243 0 2.21708e-12 1.79751e-12 0 0 7.18554e-27
6061 203 0.0015 -0.387409 -1.89062 0 -1.9766e-12 -3.17397e-12 0 0 1.01034e-28
10325 345 0.0015 -0.0632265 -1.89084 0 1.3996e-12 -7.2669e-12 0 0 3.26579e-26
10231 342 0.0015 0.215 -1.89 0 3.91984e-13 0 0 0 2.94685e-29
10232 342 0.0015 0.21569 -1.89 0 1.55773e-12 0 0 0 7.577e-28
10233 342 0.0015 0.216379 -1.89 0 -5.86803e-12 0 0 0 3.66913e-27
10234 342 0.0015 0.217069 -1.89 0 9.23681e-12 0 0 0 8.35928e-27
10235 342 0.0015 0.217759 -1.89 0 -1.06134e-11 0 0 0 1.07884e-26
10236 342 0.0015 0.218448 -1.89 0 1.18081e-11 0 0 0 1.34977e-26
10237 342 0.0015 0.219138 -1.89 0 -1.45244e-11 0 0 0 2.04222e-26
10238 342 0.0015 0.219828 -1.89 0 1.55022e-11 0 0 0 2.3046e-26
10239 342 0.0015 0.220517 -1.89 0 -1.49588e-11 0 0 0 2.14349e-26
10240 342 0.0015 0.221207 -1.89 0 1.69879e-11 0 0 0 2.80452e-26
10241 342 0.0015 0.221897 -1.89 0 -1.86174e-11 0 0 0 3.32178e-26
10242 342 0.0015 0.222586 -1.89 0 1.49226e-11 0 0 0 2.23569e-26
10243 342 0.0015 0.223276 -1.89 0 -1.12283e-11 0 0 0 1.20937e-26
10244 342 0.0015 0.223966 -1.89 0 1.246e-11 0 0 0 1.51329e-26
10245 342 0.0015 0.224655 -1.89 0 -1.73137e-11 0 0 0 2.96937e-26
10246 342 0.0015 0.225345 -1.89 0 1.73137e-11 0 0 0 2.96937e-26
10247 342 0.0015 0.226034 -1.89 0 -1.246e-11 0 0 0 1.51329e-26
10248 342 0.0015 0.226724 -1.89 0 1.12283e-11 0 0 0 1.20937e-26
10249 342 0.0015 0.227414 -1.89 0 -1.49226e-11 0 0 0 2.23569e-26
10250 342 0.0015 0.228103 -1.89 0 1.86174e-11 0 0 0 3.32178e-26
10251 342 0.0015 0.228793 -1.89 0 -1.69879e-11 0 0 0 2.80452e-26
10252 342 0.0015 0.229483 -1.89 0 1.49588e-11 0 0 0 2.14349e-26
10253 342 0.0015 0.230172 -1.89 0 -1.55022e-11 0 0 0 2.3046e-26
10254 342 0.0015 0.230862 -1.89 0 1.45244e-11 0 0 0 2.04222e-26
10255 342 0.0015 0.231552 -1.89 0 -1.18081e-11 0 0 0 1.34977e-26
10256 342 0.0015 0.232241 -1.89 0 1.06134e-11 0 0 0 1.07884e-26
10257 342 0.0015 0.232931 -1.89 0 -9.23681e-12 0 0 0 8.35928e-27
10258 342 0.0015 0.233621 -1.89 0 5.86803e-12 0 0 0 3.66913e-27
10259 342 0.0015 0.23431 -1.89 0 -1.55773e-12 0 0 0 7.577e-28
10260 342 0.0015 0.235 -1.89 0 -3.91984e-13 0 0 0 2.94685e-29
6001 201 0.0015 0.490936 -1.89052 0 -2.27647e-14 -1.26217e-13 0 0 3.66921e-29
1474 50 0.0015 0.563543 -1.89178 0 1.73736e-12 1.02016e-12 0 6.81478e-21 3.04547e-27
3539 118 0.0015 0.640514 -1.89051 0 -8.62056e-12 -6.26141e-12 0 0 6.09164e-26
2643 89 0.0015 -0.578354 -1.8892 0 -4.43257e-12 3.76961e-12 0 0 2.2264e-26
6063 203 0.0015 -0.391043 -1.8889 0 -1.31911e-11 -6.74248e-12 0 0 2.38568e-26
6064 203 0.0015 -0.392859 -1.88804 0 6.53369e-12 3.14129e-12 0 0 1.74274e-26
6062 203 0.0015 -0.389226 -1.88976 0 8.04584e-12 7.74786e-12 0 0 7.03272e-27
10264 343 0.0015 0.419847 -1.88903 0 -4.10829e-13 2.65022e-12 0 0 8.32213e-27
1475 50 0.0015 0.56577 -1.88887 0 1.62976e-12 2.99058e-12 0 6.81478e-21 2.93971e-26
3538 118 0.0015 0.643052 -1.8886 0 8.09298e-12 4.25427e-12 0 0 5.50498e-26
2644 89 0.0015 -0.582074 -1.88635 0 3.01048e-12 -2.52523e-12 0 0 1.41848e-26
6066 203 0.0015 -0.396492 -1.88631 0 -5.61046e-12 -1.10857e-11 0 0 6.23586e-27
6065 203 0.0015 -0.394676 -1.88717 0 5.52325e-12 3.55977e-12 0 0 4.0378e-27
7981 267 0.0015 -0.194876 -1.88635 0 -1.07742e-12 2.8482e-13 0 0 8.4874e-28
10326 345 0.0015 -0.0639033 -1.88773 0 -1.28759e-12 4.10761e-12 0 0 8.83413e-27
1953 66 0.0015 0.0146782 -1.88782 0 -3.56895e-13 3.66224e-12 0 5.20104e-21 1.02535e-26
8043 269 0.0015 0.154095 -1.88717 0 1.20963e-13 -9.37261e-13 0 0 1.19725e-27
3537 118 0.0015 0.645589 -1.88668 0 2.50307e-12 4.94066e-12 0 0 3.5229e-26
6068 203 0.0015 -0.400126 -1.88459 0 -4.6437e-12 -2.4659e-12 0 0 7.2382e-27
6067 203 0.0015 -0.398309 -1.88545 0 4.24919e-12 5.74907e-12 0 0 9.8328e-27
6033 202 0.0015 -0.323025 -1.88564 0 1.86411e-12 -2.98161e-12 0 2.74394e-21 2.79682e-26
7983 267 0.0015 -0.199527 -1.8846 0 -2.65712e-12 -7.19988e-13 0 0 1.72187e-27
7982 267 0.0015 -0.197202 -1.88548 0 2.32868e-12 -2.69687e-13 0 0 1.78622e-27
10327 345 0.0015 -0.0645802 -1.88463 0 1.53999e-12 -3.89265e-12 0 0 8.4398e-27
10265 343 0.0015 0.420568 -1.88507 0 8.36371e-13 1.32649e-12 0 0 1.82941e-27
1476 50 0.0015 0.567996 -1.88596 0 -2.94773e-12 -3.61926e-12 0 1.36296e-20 2.6555e-26
3536 118 0.0015 0.648126 -1.88476 0 -4.50534e-12 -5.3739e-12 0 0 3.42684e-26
2645 89 0.0015 -0.585795 -1.88349 0 -2.77104e-12 2.09058e-12 0 0 1.06352e-26
6071 203 0.0015 -0.405575 -1.882 0 -4.22158e-12 6.05034e-12 0 2.48474e-20 1.71764e-26
6070 203 0.0015 -0.403759 -1.88287 0 8.69786e-12 -1.73653e-11 0 0 7.07247e-26
6069 203 0.0015 -0.401942 -1.88373 0 -4.43471e-12 1.46167e-11 0 0 5.41503e-26
7985 267 0.0015 -0.204179 -1.88284 0 -4.93421e-12 2.89441e-12 0 0 1.12526e-26
7984 267 0.0015 -0.201853 -1.88372 0 3.84655e-12 4.38931e-13 0 0 4.68689e-27
1954 66 0.0015 0.0141981 -1.88304 0 2.64907e-13 -3.23599e-12 0 0 9.15922e-27
6002 201 0.0015 0.493952 -1.88275 0 -1.1098e-12 -2.60894e-12 0 0 2.03128e-26
1477 50 0.0015 0.570222 -1.88304 0 -1.44797e-12 -2.7253e-12 0 1.36296e-20 7.17654e-27
3535 118 0.0015 0.650663 -1.88285 0 -5.51667e-12 -3.78164e-12 0 0 4.76555e-26
2646 89 0.0015 -0.589516 -1.88064 0 4.10675e-12 -3.18343e-12 0 0 1.76643e-26
6073 203 0.0015 -0.409209 -1.88028 0 -1.56627e-12 -1.23759e-12 0 2.48474e-20 1.97977e-27
6072 203 0.0015 -0.407392 -1.88114 0 6.02919e-13 9.69085e-13 0 2.48474e-20 8.6579e-28
7988 267 0.0015 -0.211156 -1.8802 0 2.37195e-12 4.79977e-12 0 1.00459e-20 1.5181e-28
7987 267 0.0015 -0.208831 -1.88108 0 -7.11546e-13 -2.03762e-13 0 1.00459e-20 1.61018e-28
7986 267 0.0015 -0.206505 -1.88196 0 2.11372e-12 -3.99432e-12 0 0 7.36142e-27
8011 268 0.0015 -0.176367 -1.88159 0 2.44683e-15 1.68112e-14 0 0 1.01068e-30
10328 345 0.0015 -0.065257 -1.88152 0 -9.87347e-13 3.06213e-12 0 0 4.63856e-27
8044 269 0.0015 0.1534 -1.88043 0 -1.77308e-13 1.51364e-12 0 0 2.18629e-27
10266 343 0.0015 0.421289 -1.88111 0 -7.24788e-13 -3.15698e-12 0 1.24237e-20 6.12509e-27
1478 50 0.0015 0.572449 -1.88013 0 4.37755e-12 6.1964e-12 0 1.36296e-20 3.20487e-26
3534 118 0.0015 0.653201 -1.88093 0 1.04989e-11 7.34696e-12 0 0 7.38902e-26
10292 344 0.0015 -0.465124 -1.8785 0 -4.94605e-12 5.68619e-12 0 1.68424e-20 5.19725e-26
10291 344 0.0015 -0.4623 -1.87941 0 6.98284e-12 -3.83833e-12 0 0 5.04173e-26
6074 203 0.0015 -0.411025 -1.87942 0 8.13576e-12 1.09979e-13 0 0 1.91594e-26
6075 203 0.0015 -0.412842 -1.87856 0 -1.39522e-11 3.11412e-13 0 0 4.59708e-26
7990 267 0.0015 -0.215808 -1.87844 0 -8.10612e-12 8.19336e-12 0 2.00918e-20 4.0599e-26
7989 267 0.0015 -0.213482 -1.87932 0 4.04644e-12 -7.88498e-12 0 2.00918e-20 3.03566e-26
10329 345 0.0015 -0.0659339 -1.87841 0 -7.18905e-13 2.2457e-12 0 0 1.85991e-26
1955 66 0.0015 0.0137179 -1.87827 0 -1.51366e-13 2.2681e-12 0 5.20104e-21 3.88322e-27
10201 341 0.0015 0.290108 -1.87875 0 -6.02206e-14 5.82997e-13 0 0 6.46309e-28
3533 118 0.0015 0.655738 -1.87902 0 -8.14777e-12 -5.58194e-12 0 0 4.35227e-26
2647 89 0.0015 -0.593237 -1.87778 0 -3.6084e-12 2.88883e-12 0 5.32605e-21 1.39469e-26
10294 344 0.0015 -0.470773 -1.87669 0 1.12785e-11 -2.46728e-12 0 3.36849e-20 5.63592e-26
10293 344 0.0015 -0.467948 -1.87759 0 -8.89117e-12 -8.45669e-13 0 1.68424e-20 4.00195e-26
6077 203 0.0015 -0.416475 -1.87683 0 -4.17037e-12 -6.92906e-12 0 2.48474e-20 5.2303e-28
6076 203 0.0015 -0.414658 -1.87769 0 1.02744e-11 2.7862e-12 0 0 2.89309e-26
6034 202 0.0015 -0.327828 -1.87791 0 3.30448e-15 -1.5309e-14 0 2.74394e-21 2.10565e-28
7992 267 0.0015 -0.22046 -1.87668 0 6.81093e-12 2.09759e-12 0 2.00918e-20 1.12074e-26
7991 267 0.0015 -0.218134 -1.87756 0 -1.29304e-12 -5.10891e-12 0 2.00918e-20 1.75551e-26
10267 343 0.0015 0.42201 -1.87716 0 1.46516e-12 8.07773e-12 0 1.24237e-20 4.78225e-26
1479 50 0.0015 0.574675 -1.87722 0 -5.68246e-12 -7.89072e-12 0 6.81478e-21 4.81191e-26
3532 118 0.0015 0.658275 -1.8771 0 3.52351e-12 4.31197e-12 0 0 1.78697e-26
2648 89 0.0015 -0.596958 -1.87493 0 2.60845e-12 -1.63155e-12 0 1.06521e-20 7.25779e-27
10296 344 0.0015 -0.476421 -1.87487 0 -4.31754e-12 -1.03372e-12 0 5.05273e-20 1.02979e-26
10295 344 0.0015 -0.473597 -1.87578 0 -3.82208e-12 2.45818e-12 0 3.36849e-20 1.79547e-26
6080 203 0.0015 -0.421925 -1.87425 0 1.81775e-11 -9.86037e-12 0 2.48474e-20 1.2097e-25
6079 203 0.0015 -0.420108 -1.87511 0 -1.35412e-11 4.00789e-12 0 4.96948e-20 5.90389e-26
6078 203 0.0015 -0.418291 -1.87597 0 7.21396e-12 4.07173e-12 0 4.96948e-20 1.35858e-26
7995 267 0.0015 -0.227437 -1.87404 0 9.33637e-12 2.10099e-13 0 0 2.62266e-26
7994 267 0.0015 -0.225111 -1.87492 0 -6.80715e-12 -1.82662e-12 0 1.00459e-20 1.66211e-26
7993 267 0.0015 -0.222785 -1.8758 0 -1.35043e-12 6.04378e-13 0 1.00459e-20 4.45424e-27
10330 345 0.0015 -0.0666107 -1.87531 0 1.48927e-12 -5.93328e-12 0 0 1.88103e-26
6003 201 0.0015 0.496967 -1.87498 0 9.06537e-13 1.97278e-12 0 0 2.17299e-26
1480 50 0.0015 0.576901 -1.87431 0 3.74834e-12 6.52548e-12 0 0 3.04936e-26
3531 118 0.0015 0.660812 -1.87519 0 1.26917e-12 -2.74631e-12 0 0 1.07439e-27
2649 89 0.0015 -0.600679 -1.87207 0 -1.41324e-12 8.79402e-14 0 1.06521e-20 1.10363e-27
10299 344 0.0015 -0.484893 -1.87215 0 -5.14909e-12 1.57918e-13 0 0 1.48086e-26
10298 344 0.0015 -0.482069 -1.87306 0 -8.08315e-13 4.03789e-13 0 1.68424e-20 2.82586e-27
10297 344 0.0015 -0.479245 -1.87396 0 5.39504e-12 -2.15976e-13 0 3.36849e-20 1.25568e-26
6082 203 0.0015 -0.425558 -1.87252 0 7.83237e-12 -3.45853e-12 0 0 2.12406e-26
6081 203 0.0015 -0.423741 -1.87338 0 -1.33336e-11 7.05011e-12 0 0 8.21181e-26
7997 267 0.0015 -0.232089 -1.87228 0 -5.29518e-12 -7.54358e-13 0 1.00459e-20 1.08513e-26
7996 267 0.0015 -0.229763 -1.87316 0 -2.86873e-12 9.82804e-13 0 0 1.06104e-26
10331 345 0.0015 -0.0672875 -1.8722 0 -2.95748e-13 1.4628e-12 0 0 3.39744e-27
1956 66 0.0015 0.0132378 -1.87349 0 7.74457e-13 -8.20554e-12 0 1.04021e-20 6.30576e-26
8045 269 0.0015 0.152704 -1.87369 0 4.60552e-13 -4.38926e-12 0 0 2.63872e-26
10202 341 0.0015 0.289307 -1.87202 0 3.04359e-13 -2.67895e-12 0 0 9.02558e-27
4531 152 0.0015 0.366216 -1.8733 0 -2.39377e-13 1.49397e-12 0 0 5.54722e-27
10268 343 0.0015 0.422731 -1.8732 0 -2.15631e-12 -1.12821e-11 0 1.24237e-20 7.42341e-26
3530 118 0.0015 0.66335 -1.87327 0 4.94682e-13 3.84336e-12 0 1.57149e-20 8.62357e-27
10301 344 0.0015 -0.490541 -1.87033 0 -3.86264e-12 -2.08167e-12 0 1.68424e-20 1.26288e-26
10300 344 0.0015 -0.487717 -1.87124 0 8.38562e-12 -5.30065e-14 0 0 2.64121e-26
6084 203 0.0015 -0.429191 -1.8708 0 1.19895e-12 -3.63159e-12 0 0 1.51432e-26
6083 203 0.0015 -0.427374 -1.87166 0 -8.08551e-12 5.99398e-12 0 0 2.72647e-26
6035 202 0.0015 -0.332631 -1.87017 0 4.03248e-13 -7.24437e-13 0 0 2.84509e-27
7999 267 0.0015 -0.23674 -1.87052 0 -8.04542e-12 2.41242e-12 0 1.00459e-20 2.60218e-26
7998 267 0.0015 -0.234415 -1.8714 0 9.61423e-12 -5.99322e-13 0 1.00459e-20 2.99789e-26
1481 50 0.0015 0.579128 -1.8714 0 -2.6031e-12 -6.06312e-12 0 0 2.13423e-26
3529 118 0.0015 0.665887 -1.87136 0 -2.63766e-12 -3.26971e-12 0 1.57149e-20 9.32826e-27
2650 89 0.0015 -0.6044 -1.86922 0 3.61162e-12 -1.55018e-12 0 5.32605e-21 1.60995e-26
10303 344 0.0015 -0.49619 -1.86852 0 1.69534e-12 -2.38939e-12 0 3.36849e-20 1.11118e-26
10302 344 0.0015 -0.493366 -1.86943 0 -3.13566e-12 4.24017e-12 0 3.36849e-20 1.0551e-26
6087 203 0.0015 -0.434641 -1.86821 0 -2.13163e-12 -7.44073e-12 0 2.48474e-20 9.48745e-28
6085 203 0.0015 -0.431008 -1.86994 0 9.63863e-13 -4.42952e-12 0 0 2.74136e-27
6086 203 0.0015 -0.432824 -1.86908 0 3.58659e-12 8.98996e-12 0 2.48474e-20 2.38466e-28
8001 267 0.0015 -0.241392 -1.86876 0 -8.53661e-13 1.36853e-12 0 0 6.35357e-28
8000 267 0.0015 -0.239066 -1.86964 0 2.6615e-12 -2.78808e-12 0 0 6.56896e-27
8012 268 0.0015 -0.171924 -1.86923 0 -1.74467e-13 -5.16478e-13 0 0 1.01938e-27
10332 345 0.0015 -0.0679644 -1.86909 0 3.46609e-14 1.42023e-12 0 0 9.67287e-28
1957 66 0.0015 0.0127576 -1.86871 0 -1.32348e-12 1.34343e-11 0 1.56031e-20 1.21567e-25
10269 343 0.0015 0.423451 -1.86924 0 1.60498e-12 7.12212e-12 0 0 3.54324e-26
1482 50 0.0015 0.581354 -1.86848 0 1.82409e-12 3.83951e-12 0 6.81478e-21 1.41298e-26
3528 118 0.0015 0.668424 -1.86944 0 4.41219e-12 1.65806e-12 0 3.14298e-20 1.19411e-26
2651 89 0.0015 -0.608121 -1.86636 0 -5.22396e-12 2.78887e-12 0 5.32605e-21 2.31122e-26
10305 344 0.0015 -0.501838 -1.8667 0 -3.10427e-12 1.54767e-12 0 0 8.68877e-27
10304 344 0.0015 -0.499014 -1.86761 0 4.17003e-12 -1.36043e-12 0 1.68424e-20 9.73902e-27
6089 203 0.0015 -0.438274 -1.86649 0 9.93317e-12 -6.87835e-12 0 0 4.11714e-26
6088 203 0.0015 -0.436457 -1.86735 0 -6.07387e-12 6.82479e-12 0 2.48474e-20 2.91842e-26
8004 267 0.0015 -0.248369 -1.86612 0 8.68565e-12 5.82403e-12 0 1.00459e-20 1.31038e-26
8003 267 0.0015 -0.246044 -1.867 0 -8.67224e-12 -4.62339e-12 0 1.00459e-20 1.46392e-26
8002 267 0.0015 -0.243718 -1.86788 0 4.63566e-12 1.61513e-12 0 0 6.33264e-27
8046 269 0.0015 0.152008 -1.86695 0 -6.34833e-13 6.3602e-12 0 0 3.92881e-26
6004 201 0.0015 0.499982 -1.86721 0 5.96279e-13 1.78933e-12 0 0 4.21077e-27
3527 118 0.0015 0.670962 -1.86752 0 -4.46836e-12 -9.43497e-14 0 3.14298e-20 1.11074e-26
10307 344 0.0015 -0.507486 -1.86489 0 2.53052e-12 -1.80453e-12 0 0 8.68371e-27
10306 344 0.0015 -0.504662 -1.8658 0 5.23889e-13 1.25018e-13 0 0 9.04682e-29
6090 203 0.0015 -0.440091 -1.86563 0 -4.03668e-12 2.71885e-12 0 0 1.29351e-26
8006 267 0.0015 -0.253021 -1.86436 0 5.12259e-12 7.27597e-12 0 1.00459e-20 2.0596e-27
8005 267 0.0015 -0.250695 -1.86524 0 -5.77356e-12 -6.53715e-12 0 1.00459e-20 4.53044e-27
10333 345 0.0015 -0.0686412 -1.86599 0 -4.42018e-13 -6.85018e-13 0 0 9.38131e-28
10203 341 0.0015 0.288506 -1.8653 0 -6.68558e-13 5.45256e-12 0 3.6872e-21 2.99199e-26
4532 152 0.0015 0.364868 -1.86469 0 1.66743e-13 -9.0882e-13 0 0 6.38888e-27
10270 343 0.0015 0.424172 -1.86529 0 -1.36599e-12 -4.59346e-12 0 0 1.29247e-26
1483 50 0.0015 0.58358 -1.86557 0 1.00514e-13 1.27235e-12 0 6.81478e-21 2.61119e-27
3526 118 0.0015 0.673499 -1.86561 0 -4.02585e-12 -6.09811e-12 0 4.71447e-20 4.2841e-26
2652 89 0.0015 -0.611842 -1.86351 0 3.42602e-12 -1.75512e-12 0 5.32605e-21 9.86035e-27
10310 344 0.0015 -0.515959 -1.86217 0 -8.3027e-12 5.18716e-12 0 0 4.3771e-26
10309 344 0.0015 -0.513134 -1.86307 0 5.13004e-12 -1.6251e-12 0 0 1.19339e-26
10308 344 0.0015 -0.51031 -1.86398 0 -5.54876e-12 1.95215e-12 0 0 1.43874e-26
6036 202 0.0015 -0.337434 -1.86244 0 -1.31999e-12 2.29016e-12 0 0 9.22588e-27
8008 267 0.0015 -0.257673 -1.8626 0 2.46921e-12 6.47954e-12 0 2.00918e-20 4.6796e-28
8007 267 0.0015 -0.255347 -1.86348 0 -5.28033e-12 -7.71166e-12 0 2.00918e-20 2.05419e-27
10334 345 0.0015 -0.0693181 -1.86288 0 6.25436e-13 -2.54363e-12 0 0 4.54581e-27
1958 66 0.0015 0.0122775 -1.86393 0 7.96131e-13 -8.25613e-12 0 1.04021e-20 6.46633e-26
1484 50 0.0015 0.585807 -1.86266 0 1.89683e-12 -2.4561e-13 0 6.81478e-21 8.70916e-27
3525 118 0.0015 0.676036 -1.86369 0 4.02585e-12 6.09811e-12 0 4.71447e-20 4.2841e-26
2653 89 0.0015 -0.615563 -1.86065 0 -1.58981e-12 1.25355e-12 0 5.32605e-21 3.16037e-27
10312 344 0.0015 -0.521607 -1.86035 0 -8.1263e-12 4.47212e-12 0 1.68424e-20 4.26916e-26
10311 344 0.0015 -0.518783 -1.86126 0 1.17831e-11 -7.73407e-12 0 1.68424e-20 7.60254e-26
8010 267 0.0015 -0.262324 -1.86085 0 2.01392e-12 -4.2264e-13 0 0 2.85535e-27
8009 267 0.0015 -0.259998 -1.86172 0 -2.33125e-12 -2.03693e-12 0 1.00459e-20 3.08233e-27
8047 269 0.0015 0.151313 -1.86021 0 1.81313e-13 -2.23189e-12 0 0 1.43797e-26
10271 343 0.0015 0.424893 -1.86133 0 1.65131e-12 6.08885e-12 0 0 2.24783e-26
3524 118 0.0015 0.678573 -1.86178 0 4.46836e-12 9.43497e-14 0 3.14298e-20 1.11074e-26
10314 344 0.0015 -0.527255 -1.85854 0 2.91345e-12 -2.02146e-12 0 0 5.35285e-27
10313 344 0.0015 -0.524431 -1.85944 0 1.18934e-13 4.66526e-13 0 1.68424e-20 8.6487e-27
10335 345 0.0015 -0.0699949 -1.85978 0 7.20496e-13 -1.17897e-12 0 0 1.54944e-26
1959 66 0.0015 0.0117974 -1.85915 0 -1.06412e-13 1.54604e-12 0 5.20104e-21 2.98498e-27
4771 160 0.0015 0.0785585 -1.85825 0 4.47658e-14 -1.5027e-12 0 0 5.77655e-27
10204 341 0.0015 0.287705 -1.85857 0 6.21671e-13 -4.71584e-12 0 7.37441e-21 2.50884e-26
6005 201 0.0015 0.502997 -1.85945 0 1.95948e-13 4.24976e-13 0 0 8.3787e-27
1485 50 0.0015 0.588033 -1.85975 0 -6.11087e-12 -4.85231e-12 0 0 3.25494e-26
3523 118 0.0015 0.681111 -1.85986 0 -4.41219e-12 -1.65806e-12 0 3.14298e-20 1.19411e-26
2654 89 0.0015 -0.619284 -1.8578 0 -1.49444e-12 4.10295e-13 0 0 5.71786e-27
10316 344 0.0015 -0.532903 -1.85672 0 1.3406e-12 -5.88834e-13 0 0 1.85224e-27
10315 344 0.0015 -0.530079 -1.85763 0 -7.44289e-13 1.09756e-12 0 0 9.7434e-28
8013 268 0.0015 -0.167482 -1.85688 0 4.18756e-13 1.20079e-12 0 1.90242e-21 3.03328e-27
10336 345 0.0015 -0.0706718 -1.85667 0 -3.47053e-12 1.38478e-11 0 0 1.12704e-25
4533 152 0.0015 0.36352 -1.85607 0 2.47906e-13 -1.79297e-12 0 5.72705e-21 4.4507e-27
10272 343 0.0015 0.425614 -1.85738 0 -2.02664e-12 -8.62895e-12 0 0 4.54061e-26
1486 50 0.0015 0.59026 -1.85684 0 6.11087e-12 4.85231e-12 0 0 3.25494e-26
3522 118 0.0015 0.683648 -1.85795 0 2.63766e-12 3.26971e-12 0 1.57149e-20 9.32826e-27
3521 118 0.0015 0.686185 -1.85603 0 -4.94682e-13 -3.84336e-12 0 1.57149e-20 8.62357e-27
2655 89 0.0015 -0.623004 -1.85494 0 5.59153e-12 -3.86412e-12 0 0 3.4985e-26
10318 344 0.0015 -0.538552 -1.85491 0 3.64292e-12 5.7401e-13 0 0 8.15592e-27
10317 344 0.0015 -0.535727 -1.85581 0 -4.83338e-12 1.29385e-13 0 0 9.98812e-27
6037 202 0.0015 -0.342237 -1.85471 0 9.02702e-13 -1.56212e-12 0 0 6.59566e-27
1960 66 0.0015 0.0113172 -1.85437 0 4.42844e-13 -4.95616e-12 0 0 3.2318e-26
3520 118 0.0015 0.688722 -1.85412 0 -1.26917e-12 2.74631e-12 0 0 1.07439e-27
2656 89 0.0015 -0.626725 -1.85209 0 -7.419e-12 6.00544e-12 0 1.59781e-20 5.93081e-26
10320 344 0.0015 -0.5442 -1.85309 0 -2.65377e-12 5.89074e-13 0 0 6.03693e-27
10319 344 0.0015 -0.541376 -1.854 0 2.35522e-12 -1.02747e-12 0 0 6.0555e-27
10337 345 0.0015 -0.0713486 -1.85356 0 5.44699e-12 -2.43819e-11 0 0 2.81079e-25
8048 269 0.0015 0.150617 -1.85348 0 3.2143e-13 -2.37926e-12 0 0 7.35229e-27
10273 343 0.0015 0.426335 -1.85342 0 2.73083e-12 1.25855e-11 0 1.24237e-20 9.55001e-26
1487 50 0.0015 0.592486 -1.85392 0 -1.89683e-12 2.4561e-13 0 6.81478e-21 8.70916e-27
3519 118 0.0015 0.69126 -1.8522 0 -3.52351e-12 -4.31197e-12 0 0 1.78697e-26
10338 345 0.0015 -0.0720254 -1.85046 0 -4.95939e-12 2.29883e-11 0 0 2.55209e-25
10205 341 0.0015 0.286904 -1.85184 0 5.16493e-14 -8.75982e-13 0 1.10616e-20 1.3066e-26
6006 201 0.0015 0.506013 -1.85168 0 -1.62269e-12 -4.26245e-12 0 0 2.64874e-26
1488 50 0.0015 0.594712 -1.85101 0 -1.00514e-13 -1.27235e-12 0 6.81478e-21 2.61119e-27
3518 118 0.0015 0.693797 -1.85028 0 8.14777e-12 5.58194e-12 0 0 4.35227e-26
2657 89 0.0015 -0.630446 -1.84923 0 4.10116e-12 -3.62297e-12 0 1.59781e-20 3.02297e-26
1961 66 0.0015 0.0108371 -1.84959 0 -6.88966e-13 7.32582e-12 0 5.20104e-21 4.02344e-26
4772 160 0.0015 0.0782973 -1.84905 0 -9.0151e-14 2.98213e-12 0 2.71488e-21 1.13758e-26
10274 343 0.0015 0.427056 -1.84946 0 -1.67547e-12 -8.35179e-12 0 2.48474e-20 6.52945e-26
1489 50 0.0015 0.596939 -1.8481 0 -1.82409e-12 -3.83951e-12 0 6.81478e-21 1.41298e-26
3517 118 0.0015 0.696334 -1.84837 0 -1.04989e-11 -7.34696e-12 0 0 7.38902e-26
2658 89 0.0015 -0.634167 -1.84638 0 8.98237e-13 -6.14166e-13 0 1.59781e-20 4.74626e-27
6038 202 0.0015 -0.34704 -1.84697 0 1.24503e-13 -1.92994e-13 0 2.74394e-21 5.70553e-28
10339 345 0.0015 -0.0727023 -1.84735 0 2.81045e-12 -1.3042e-11 0 1.57149e-20 9.04515e-26
8049 269 0.0015 0.149922 -1.84674 0 -4.63709e-13 3.61028e-12 0 0 1.24946e-26
6541 219 0.0015 0.213251 -1.84656 0 2.38225e-13 -2.83096e-12 0 0 1.59372e-26
4534 152 0.0015 0.362172 -1.84745 0 -2.19346e-13 1.41396e-12 0 1.43176e-20 3.71639e-27
3516 118 0.0015 0.698871 -1.84645 0 5.51667e-12 3.78164e-12 0 0 4.76555e-26
8014 268 0.0015 -0.163039 -1.84452 0 1.54662e-13 4.13795e-13 0 1.90242e-21 7.13643e-27
10340 345 0.0015 -0.0733791 -1.84424 0 -1.12032e-12 5.89957e-12 0 3.14298e-20 1.79631e-26
1962 66 0.0015 0.010357 -1.84481 0 -6.71354e-14 3.43965e-13 0 5.20104e-21 1.82717e-26
10206 341 0.0015 0.286103 -1.84511 0 -6.03213e-13 5.20285e-12 0 7.37441e-21 2.6328e-26
10275 343 0.0015 0.427777 -1.84551 0 -1.34447e-12 -5.57093e-12 0 3.72711e-20 5.03541e-26
1490 50 0.0015 0.599165 -1.84519 0 2.6031e-12 6.06312e-12 0 0 2.13423e-26
3515 118 0.0015 0.701409 -1.84454 0 4.50534e-12 5.3739e-12 0 0 3.42684e-26
2659 89 0.0015 -0.637888 -1.84352 0 -1.24352e-12 1.31058e-12 0 0 4.12203e-27
6007 201 0.0015 0.509028 -1.84391 0 2.0488e-12 5.60475e-12 0 0 4.12007e-26
1491 50 0.0015 0.601391 -1.84228 0 -3.74834e-12 -6.52548e-12 0 0 3.04936e-26
3514 118 0.0015 0.703946 -1.84262 0 -2.50307e-12 -4.94066e-12 0 0 3.5229e-26
2660 89 0.0015 -0.641609 -1.84066 0 -2.32217e-12 1.44635e-12 0 0 9.69871e-27
10341 345 0.0015 -0.074056 -1.84114 0 -1.77945e-13 1.82268e-13 0 3.14298e-20 7.30936e-27
1963 66 0.0015 0.00987681 -1.84004 0 -4.47119e-14 6.40095e-13 0 5.20104e-21 2.60184e-26
10276 343 0.0015 0.428498 -1.84155 0 1.34447e-12 5.57093e-12 0 3.72711e-20 5.03541e-26
3513 118 0.0015 0.706483 -1.84071 0 -8.09298e-12 -4.25427e-12 0 0 5.50498e-26
6039 202 0.0015 -0.351842 -1.83924 0 -7.42829e-14 1.2082e-13 0 5.48788e-21 6.79233e-28
10342 345 0.0015 -0.0747328 -1.83803 0 1.44545e-12 -8.88748e-12 0 1.57149e-20 4.55042e-26
4773 160 0.0015 0.0780361 -1.83985 0 9.94885e-14 -3.32696e-12 0 2.71488e-21 1.43309e-26
8050 269 0.0015 0.149226 -1.84 0 2.85291e-13 -2.11526e-12 0 0 5.89958e-27
6542 219 0.0015 0.21269 -1.83947 0 -4.33695e-13 5.01846e-12 0 0 2.54609e-26
10207 341 0.0015 0.285302 -1.83839 0 -8.38703e-15 1.20955e-13 0 3.6872e-21 3.50093e-26
4535 152 0.0015 0.360823 -1.83883 0 1.22764e-13 -5.74601e-13 0 1.43176e-20 4.5028e-28
1492 50 0.0015 0.603618 -1.83936 0 5.68246e-12 7.89072e-12 0 6.81478e-21 4.81191e-26
3512 118 0.0015 0.70902 -1.83879 0 8.62056e-12 6.26141e-12 0 0 6.09164e-26
2661 89 0.0015 -0.64533 -1.83781 0 6.06803e-12 -4.86333e-12 0 0 4.28747e-26
10277 343 0.0015 0.429219 -1.8376 0 1.67547e-12 8.35179e-12 0 2.48474e-20 6.52945e-26
6008 201 0.0015 0.512043 -1.83614 0 -1.71391e-12 -4.87919e-12 0 0 3.15874e-26
1493 50 0.0015 0.605844 -1.83645 0 -4.37755e-12 -6.1964e-12 0 1.36296e-20 3.20487e-26
3511 118 0.0015 0.711558 -1.83688 0 -2.21708e-12 -1.79751e-12 0 0 7.18554e-27
2662 89 0.0015 -0.649051 -1.83495 0 -4.41497e-12 4.04817e-12 0 0 3.42806e-26
10343 345 0.0015 -0.0754097 -1.83493 0 -8.13779e-13 8.52894e-12 0 0 4.38798e-26
1964 66 0.0015 0.00939668 -1.83526 0 8.2848e-13 -8.12171e-12 0 5.20104e-21 4.5604e-26
2663 89 0.0015 -0.652772 -1.8321 0 -1.47634e-12 4.52167e-13 0 0 8.4054e-27
10171 340 0.0015 -0.234195 -1.83312 0 7.68973e-13 -1.0747e-12 0 0 3.79212e-27
8015 268 0.0015 -0.158597 -1.83216 0 -8.8789e-13 -2.47052e-12 0 1.90242e-21 1.26874e-26
8051 269 0.0015 0.14853 -1.83326 0 1.68723e-13 -1.84318e-12 0 0 9.94706e-27
6543 219 0.0015 0.212128 -1.83239 0 2.56974e-13 -2.79575e-12 0 0 1.02613e-26
10278 343 0.0015 0.429939 -1.83364 0 -2.73083e-12 -1.25855e-11 0 1.24237e-20 9.55001e-26
1494 50 0.0015 0.60807 -1.83354 0 1.44797e-12 2.7253e-12 0 1.36296e-20 7.17654e-27
6040 202 0.0015 -0.356645 -1.83151 0 3.87367e-14 -8.05115e-14 0 5.48788e-21 5.70966e-28
10344 345 0.0015 -0.0760865 -1.83182 0 -1.7574e-13 -2.8832e-12 0 0 3.53552e-27
1965 66 0.0015 0.00891654 -1.83048 0 -1.76602e-13 1.5429e-12 0 5.20104e-21 4.34637e-26
4774 160 0.0015 0.0777749 -1.83066 0 -1.10009e-13 3.75833e-12 0 2.71488e-21 1.80715e-26
10208 341 0.0015 0.284501 -1.83166 0 9.62759e-13 -8.13295e-12 0 0 6.67629e-26
4536 152 0.0015 0.359475 -1.83021 0 -4.16963e-13 2.49131e-12 0 8.59057e-21 1.15401e-26
1495 50 0.0015 0.610297 -1.83063 0 2.94773e-12 3.61926e-12 0 1.36296e-20 2.6555e-26
2664 89 0.0015 -0.656493 -1.82924 0 2.46777e-12 -1.36431e-12 0 0 7.53193e-27
10345 345 0.0015 -0.0767633 -1.82871 0 -1.09854e-12 5.85193e-12 0 0 2.16902e-26
10279 343 0.0015 0.43066 -1.82968 0 2.02664e-12 8.62895e-12 0 0 4.54061e-26
6009 201 0.0015 0.515058 -1.82837 0 1.29711e-12 3.66129e-12 0 0 1.7768e-26
2665 89 0.0015 -0.660213 -1.82639 0 -9.63973e-13 3.52711e-13 0 0 6.37251e-28
10172 340 0.0015 -0.238704 -1.82673 0 -1.11052e-12 1.53688e-12 0 0 4.50899e-27
8052 269 0.0015 0.147835 -1.82652 0 -1.83722e-13 1.78625e-12 0 0 1.0038e-26
1496 50 0.0015 0.612523 -1.82772 0 -1.62976e-12 -2.99058e-12 0 6.81478e-21 2.93971e-26
10346 345 0.0015 -0.0774402 -1.82561 0 1.99258e-12 -9.69911e-12 0 0 4.3312e-26
1966 66 0.0015 0.0084364 -1.8257 0 -3.77671e-13 3.3199e-12 0 5.20104e-21 1.35596e-26
6544 219 0.0015 0.211567 -1.8253 0 -8.19709e-14 8.12619e-13 0 0 8.20955e-28
10209 341 0.0015 0.2837 -1.82493 0 -5.87412e-13 4.90128e-12 0 0 4.86021e-26
10280 343 0.0015 0.431381 -1.82573 0 -1.65131e-12 -6.08885e-12 0 0 2.24783e-26
1497 50 0.0015 0.614749 -1.8248 0 -1.73736e-12 -1.02016e-12 0 6.81478e-21 3.04547e-27
2666 89 0.0015 -0.663934 -1.82353 0 -7.31162e-13 9.05466e-13 0 0 4.12586e-27
6041 202 0.0015 -0.361448 -1.82377 0 8.00436e-13 -1.22997e-12 0 2.74394e-21 8.96481e-27
10347 345 0.0015 -0.078117 -1.8225 0 -9.15788e-13 7.26083e-12 0 0 2.70721e-26
2667 89 0.0015 -0.667655 -1.82068 0 1.87318e-12 -1.98088e-12 0 0 5.02843e-27
10173 340 0.0015 -0.243212 -1.82034 0 4.73556e-13 -6.77001e-13 0 0 8.54367e-28
1967 66 0.0015 0.00795626 -1.82092 0 -5.63232e-13 6.76985e-12 0 5.20104e-21 6.44578e-26
4775 160 0.0015 0.0775136 -1.82146 0 6.86894e-14 -2.34958e-12 0 0 9.83235e-27
4537 152 0.0015 0.358127 -1.82159 0 4.95496e-13 -3.21393e-12 0 0 1.41414e-26
10281 343 0.0015 0.432102 -1.82177 0 1.36599e-12 4.59346e-12 0 0 1.29247e-26
6010 201 0.0015 0.518074 -1.8206 0 -2.40554e-13 -7.82875e-13 0 0 8.23133e-27
1498 50 0.0015 0.616976 -1.82189 0 -7.60267e-13 -2.31485e-12 0 0 6.09639e-27
8016 268 0.0015 -0.154154 -1.81981 0 5.22387e-13 1.45174e-12 0 0 7.6043e-27
10348 345 0.0015 -0.0787939 -1.81939 0 8.21344e-14 -4.05e-12 0 1.57149e-20 7.06699e-27
8053 269 0.0015 0.147139 -1.81978 0 -3.69562e-13 3.38021e-12 0 3.6872e-21 1.66089e-26
6545 219 0.0015 0.211005 -1.81821 0 -5.12037e-14 5.65997e-13 0 0 1.26508e-27
10210 341 0.0015 0.282899 -1.8182 0 -2.04545e-13 1.86349e-12 0 0 5.67777e-27
1499 50 0.0015 0.619202 -1.81898 0 -2.44517e-12 -2.0983e-12 0 0 3.7948e-26
2668 89 0.0015 -0.671376 -1.81782 0 -1.35503e-12 1.62075e-12 0 0 2.77096e-27
6042 202 0.0015 -0.366251 -1.81604 0 -2.52477e-12 4.07308e-12 0 2.74394e-21 3.05742e-26
10349 345 0.0015 -0.0794707 -1.81629 0 -6.77882e-13 4.68841e-12 0 1.57149e-20 1.05011e-26
1968 66 0.0015 0.00747613 -1.81614 0 1.41001e-12 -1.51757e-11 0 5.20104e-21 1.56147e-25
10282 343 0.0015 0.432823 -1.81781 0 -1.60498e-12 -7.12212e-12 0 0 3.54324e-26
1500 50 0.0015 0.621428 -1.81607 0 3.58491e-12 4.30184e-12 0 0 3.18722e-26
2669 89 0.0015 -0.675097 -1.81497 0 2.61207e-12 -2.22065e-12 0 0 8.74768e-27
5941 199 0.0015 0.740778 -1.81551 0 -3.40255e-13 -1.38403e-12 0 2.60052e-21 5.42014e-27
2670 89 0.0015 -0.678818 -1.81211 0 -1.87932e-12 1.43536e-12 0 0 7.28553e-27
10174 340 0.0015 -0.24772 -1.81396 0 -3.45695e-13 6.0348e-13 0 0 5.59355e-28
10350 345 0.0015 -0.0801475 -1.81318 0 5.98113e-13 -2.90481e-12 0 1.57149e-20 7.76651e-27
4776 160 0.0015 0.0772524 -1.81226 0 -3.50637e-14 1.38688e-12 0 0 2.79112e-27
8054 269 0.0015 0.146443 -1.81304 0 5.48186e-13 -4.73132e-12 0 7.37441e-21 2.24924e-26
4538 152 0.0015 0.356779 -1.81297 0 2.11982e-14 4.18962e-14 0 0 5.68833e-27
10283 343 0.0015 0.433544 -1.81386 0 2.15631e-12 1.12821e-11 0 1.24237e-20 7.42341e-26
6011 201 0.0015 0.521089 -1.81283 0 -1.27478e-12 -3.11687e-12 0 0 1.6253e-26
1969 66 0.0015 0.00699599 -1.81136 0 -1.23715e-12 1.2662e-11 0 5.20104e-21 1.17912e-25
6546 219 0.0015 0.210443 -1.81113 0 -1.69952e-13 2.45169e-12 0 3.51396e-21 2.17971e-26
10211 341 0.0015 0.282098 -1.81148 0 4.36872e-13 -3.76949e-12 0 0 1.36535e-26
6043 202 0.0015 -0.371054 -1.8083 0 1.91358e-12 -3.18304e-12 0 5.48788e-21 2.34538e-26
10284 343 0.0015 0.434265 -1.8099 0 -1.46516e-12 -8.07773e-12 0 1.24237e-20 4.78225e-26
10175 340 0.0015 -0.252228 -1.80757 0 -1.25019e-13 -3.42738e-15 0 6.39056e-21 9.86795e-28
8017 268 0.0015 -0.149712 -1.80745 0 1.908e-13 5.50273e-13 0 0 1.74981e-27
1970 66 0.0015 0.00651585 -1.80658 0 3.41475e-13 -2.80277e-12 0 0 2.96384e-26
8055 269 0.0015 0.145748 -1.8063 0 -5.52371e-13 4.52806e-12 0 1.10616e-20 2.03411e-26
5942 199 0.0015 0.743061 -1.80618 0 6.96631e-13 2.7919e-12 0 2.60052e-21 1.10474e-26
6547 219 0.0015 0.209882 -1.80404 0 5.76752e-13 -7.48651e-12 0 3.51396e-21 5.67472e-26
10212 341 0.0015 0.281297 -1.80475 0 -5.10781e-13 4.08258e-12 0 0 1.59283e-26