ITEM: TIMESTEP
28380
ITEM: NUMBER OF ATOMS
10500
ITEM: BOX BOUNDS pp pp pp
-1.0249999999999999e+00 1.0249999999999999e+00
-2.0000000000000000e+00 2.0000000000000000e+00
-5.0000000000000003e-02 5.0000000000000003e-02
ITEM: ATOMS id type radius x y z fx fy fz c_bendingE c_stretchingE
10321 345 0.0015 -0.0605191 -1.90326 0 1.0222e-13 -7.71201e-14 0 0 8.32846e-30
6031 202 0.0015 -0.31342 -1.90111 0 -1.72421e-13 2.82139e-13 0 0 2.76464e-28
10322 345 0.0015 -0.061196 -1.90016 0 3.1615e-13 -2.11658e-12 0 0 4.40972e-27
8041 269 0.0015 0.155487 -1.90065 0 -5.88354e-15 6.3916e-14 0 3.6872e-21 7.75171e-30
10261 343 0.0015 0.417684 -1.90089 0 -8.27511e-13 -4.14303e-12 0 0 1.99328e-26
1471 50 0.0015 0.556864 -1.90052 0 1.16707e-12 1.08517e-12 0 0 2.51271e-27
10323 345 0.0015 -0.0618728 -1.89705 0 -1.52007e-12 6.72411e-12 0 0 2.35871e-26
1951 66 0.0015 0.0156385 -1.89738 0 -1.8423e-13 1.69422e-12 0 0 3.87451e-27
10262 343 0.0015 0.418405 -1.89694 0 1.56018e-12 7.18928e-12 0 0 3.08642e-26
1472 50 0.0015 0.559091 -1.8976 0 -1.68004e-12 -1.09119e-12 0 0 2.61461e-27
2641 89 0.0015 -0.570912 -1.89491 0 -2.5418e-14 3.50457e-13 0 0 7.10412e-29
1473 50 0.0015 0.561317 -1.89469 0 1.67973e-12 1.48936e-12 0 0 3.72773e-27
2642 89 0.0015 -0.574633 -1.89206 0 1.37488e-13 -9.26199e-13 0 0 3.22579e-28
6032 202 0.0015 -0.318223 -1.89337 0 1.18216e-13 -1.91048e-13 0 0 3.0487e-28
10324 345 0.0015 -0.0625496 -1.89394 0 2.30908e-12 -9.23903e-12 0 0 4.00248e-26
1952 66 0.0015 0.0151583 -1.8926 0 5.4074e-13 -4.94828e-12 0 0 1.817e-26
8042 269 0.0015 0.154791 -1.89391 0 -2.83944e-13 2.68812e-12 0 3.6872e-21 1.44186e-26
10263 343 0.0015 0.419126 -1.89298 0 -1.05305e-12 -3.86635e-12 0 0 1.17656e-26
3540 118 0.0015 0.637977 -1.89243 0 1.03667e-12 9.73158e-13 0 0 1.76498e-27
6061 203 0.0015 -0.387409 -1.89062 0 2.2064e-12 3.32554e-12 0 2.48474e-20 1.8019e-28
10325 345 0.0015 -0.0632265 -1.89084 0 -1.61149e-12 5.78085e-12 0 0 2.1974e-26
10231 342 0.0015 0.215 -1.89 0 1.75324e-13 0 0 0 5.85879e-30
10232 342 0.0015 0.21569 -1.89 0 2.89102e-13 0 0 0 4.72185e-29
10233 342 0.0015 0.216379 -1.89 0 -1.95571e-12 0 0 0 4.67402e-28
10234 342 0.0015 0.217069 -1.89 0 3.15167e-12 0 0 0 9.53898e-28
10235 342 0.0015 0.217759 -1.89 0 -3.51344e-12 0 0 0 1.18599e-27
10236 342 0.0015 0.218448 -1.89 0 3.83921e-12 0 0 0 1.41367e-27
10237 342 0.0015 0.219138 -1.89 0 -4.89006e-12 0 0 0 2.371e-27
10238 342 0.0015 0.219828 -1.89 0 6.15735e-12 0 0 0 3.64349e-27
10239 342 0.0015 0.220517 -1.89 0 -6.19358e-12 0 0 0 3.68404e-27
10240 342 0.0015 0.221207 -1.89 0 5.68692e-12 0 0 0 3.10115e-27
10241 342 0.0015 0.221897 -1.89 0 -5.28872e-12 0 0 0 2.68274e-27
10242 342 0.0015 0.222586 -1.89 0 4.2743e-12 0 0 0 1.81252e-27
10243 342 0.0015 0.223276 -1.89 0 -3.18745e-12 0 0 0 9.80531e-28
10244 342 0.0015 0.223966 -1.89 0 3.76721e-12 0 0 0 1.42954e-27
10245 342 0.0015 0.224655 -1.89 0 -6.12113e-12 0 0 0 3.80398e-27
10246 342 0.0015 0.225345 -1.89 0 6.12113e-12 0 0 0 3.80398e-27
10247 342 0.0015 0.226034 -1.89 0 -3.76721e-12 0 0 0 1.42954e-27
10248 342 0.0015 0.226724 -1.89 0 3.18745e-12 0 0 0 9.80531e-28
10249 342 0.0015 0.227414 -1.89 0 -4.2743e-12 0 0 0 1.81252e-27
10250 342 0.0015 0.228103 -1.89 0 5.28872e-12 0 0 0 2.68274e-27
10251 342 0.0015 0.228793 -1.89 0 -5.68692e-12 0 0 0 3.10115e-27
10252 342 0.0015 0.229483 -1.89 0 6.19358e-12 0 0 0 3.68404e-27
10253 342 0.0015 0.230172 -1.89 0 -6.15735e-12 0 0 0 3.64349e-27
10254 342 0.0015 0.230862 -1.89 0 4.89006e-12 0 0 0 2.371e-27
10255 342 0.0015 0.231552 -1.89 0 -3.83921e-12 0 0 0 1.41367e-27
10256 342 0.0015 0.232241 -1.89 0 3.51344e-12 0 0 0 1.18599e-27
10257 342 0.0015 0.232931 -1.89 0 -3.15167e-12 0 0 0 9.53898e-28
10258 342 0.0015 0.233621 -1.89 0 1.95571e-12 0 0 0 4.67402e-28
10259 342 0.0015 0.23431 -1.89 0 -2.89102e-13 0 0 0 4.72185e-29
10260 342 0.0015 0.235 -1.89 0 -1.75324e-13 0 0 0 5.85879e-30
6001 201 0.0015 0.490936 -1.89052 0 3.74263e-13 9.45811e-13 0 0 2.39483e-27
1474 50 0.0015 0.563543 -1.89178 0 -3.15268e-13 -4.56745e-13 0 0 5.43431e-27
3539 118 0.0015 0.640514 -1.89051 0 -2.93569e-12 -2.86188e-12 0 0 7.98342e-27
2643 89 0.0015 -0.578354 -1.8892 0 -3.31444e-13 7.40962e-13 0 0 3.49795e-28
6063 203 0.0015 -0.391043 -1.8889 0 5.61039e-12 1.04215e-11 0 4.96948e-20 9.96889e-27
6064 203 0.0015 -0.392859 -1.88804 0 1.1097e-12 -1.04037e-11 0 2.48474e-20 8.33517e-27
6062 203 0.0015 -0.389226 -1.88976 0 -8.06044e-12 -8.02858e-12 0 4.96948e-20 6.16359e-27
10264 343 0.0015 0.419847 -1.88903 0 4.57719e-13 1.20251e-12 0 0 1.01379e-27
1475 50 0.0015 0.56577 -1.88887 0 -2.96139e-12 -4.44279e-12 0 0 1.80622e-26
3538 118 0.0015 0.643052 -1.8886 0 3.34404e-12 3.51439e-12 0 0 1.02355e-26
2644 89 0.0015 -0.582074 -1.88635 0 1.44202e-12 -7.82332e-13 0 0 2.45741e-27
6066 203 0.0015 -0.396492 -1.88631 0 -6.20353e-12 -1.15461e-12 0 2.48474e-20 8.15977e-27
6065 203 0.0015 -0.394676 -1.88717 0 3.17321e-12 5.18189e-12 0 0 1.09456e-26
7981 267 0.0015 -0.194876 -1.88635 0 7.11283e-13 3.73749e-13 0 1.00459e-20 1.9627e-28
10326 345 0.0015 -0.0639033 -1.88773 0 8.61586e-13 -2.60879e-12 0 0 3.39217e-27
1953 66 0.0015 0.0146782 -1.88782 0 -6.5812e-13 6.07601e-12 0 5.20104e-21 2.50408e-26
8043 269 0.0015 0.154095 -1.88717 0 5.39074e-13 -5.04433e-12 0 3.6872e-21 2.4416e-26
3537 118 0.0015 0.645589 -1.88668 0 -4.54393e-13 -1.66683e-12 0 1.57149e-20 4.53505e-27
6068 203 0.0015 -0.400126 -1.88459 0 8.9569e-13 -6.91791e-12 0 4.96948e-20 4.10922e-27
6067 203 0.0015 -0.398309 -1.88545 0 2.04776e-12 4.01739e-12 0 2.48474e-20 2.8974e-27
6033 202 0.0015 -0.323025 -1.88564 0 -6.09659e-14 7.27723e-14 0 0 1.29522e-28
7983 267 0.0015 -0.199527 -1.8846 0 2.09949e-13 3.44675e-13 0 4.01836e-20 2.39675e-28
7982 267 0.0015 -0.197202 -1.88548 0 -5.82984e-13 -1.10211e-12 0 3.01377e-20 2.94787e-28
10327 345 0.0015 -0.0645802 -1.88463 0 -1.39047e-12 5.6888e-12 0 0 1.82507e-26
10265 343 0.0015 0.420568 -1.88507 0 -1.5995e-14 -3.78256e-15 0 0 3.53127e-28
1476 50 0.0015 0.567996 -1.88596 0 9.92936e-13 3.10885e-12 0 0 1.71204e-26
3536 118 0.0015 0.648126 -1.88476 0 -3.47472e-12 -1.08526e-12 0 1.57149e-20 6.77214e-27
2645 89 0.0015 -0.585795 -1.88349 0 -2.51411e-12 1.31842e-12 0 1.59781e-20 5.10406e-27
6071 203 0.0015 -0.405575 -1.882 0 -1.31738e-12 3.73699e-12 0 0 2.25136e-27
6070 203 0.0015 -0.403759 -1.88287 0 1.95044e-12 -1.2128e-12 0 2.48474e-20 1.45437e-27
6069 203 0.0015 -0.401942 -1.88373 0 -1.76378e-12 4.15239e-12 0 2.48474e-20 3.50681e-27
7985 267 0.0015 -0.204179 -1.88284 0 2.99019e-14 1.02057e-12 0 1.00459e-20 1.90714e-28
7984 267 0.0015 -0.201853 -1.88372 0 -4.57198e-13 5.37288e-13 0 3.01377e-20 1.601e-28
1954 66 0.0015 0.0141981 -1.88304 0 5.444e-13 -5.3326e-12 0 5.20104e-21 1.92333e-26
6002 201 0.0015 0.493952 -1.88275 0 -7.26004e-13 -1.79667e-12 0 0 4.35606e-27
1477 50 0.0015 0.570222 -1.88304 0 2.80656e-12 1.44978e-12 0 0 4.67429e-27
3535 118 0.0015 0.650663 -1.88285 0 3.01668e-12 1.79184e-12 0 3.14298e-20 6.85671e-27
2646 89 0.0015 -0.589516 -1.88064 0 1.76279e-12 -7.5557e-13 0 1.59781e-20 2.96066e-27
6073 203 0.0015 -0.409209 -1.88028 0 1.19291e-11 -3.18521e-12 0 0 4.44292e-26
6072 203 0.0015 -0.407392 -1.88114 0 -4.46779e-12 -3.09181e-12 0 0 1.21716e-26
7988 267 0.0015 -0.211156 -1.8802 0 -1.17988e-14 -3.63239e-12 0 0 1.38006e-27
7987 267 0.0015 -0.208831 -1.88108 0 2.30059e-12 3.76994e-12 0 0 3.36374e-28
7986 267 0.0015 -0.206505 -1.88196 0 -1.30161e-12 -2.91491e-12 0 0 4.9588e-28
8011 268 0.0015 -0.176367 -1.88159 0 -2.5239e-13 -6.96059e-13 0 5.70726e-21 1.99947e-27
10328 345 0.0015 -0.065257 -1.88152 0 1.03378e-12 -5.25699e-12 0 0 1.70638e-26
8044 269 0.0015 0.1534 -1.88043 0 -4.14239e-13 3.76145e-12 0 0 1.4118e-26
10266 343 0.0015 0.421289 -1.88111 0 -1.02291e-12 -4.54448e-12 0 0 2.0445e-26
1478 50 0.0015 0.572449 -1.88013 0 -2.49758e-12 -1.52742e-12 0 0 4.45379e-27
3534 118 0.0015 0.653201 -1.88093 0 2.73016e-12 7.79293e-13 0 1.57149e-20 1.12632e-26
10292 344 0.0015 -0.465124 -1.8785 0 -3.41291e-12 4.46782e-13 0 0 5.14776e-27
10291 344 0.0015 -0.4623 -1.87941 0 1.22718e-12 -5.61659e-14 0 0 1.15812e-27
6074 203 0.0015 -0.411025 -1.87942 0 -9.53916e-12 3.21524e-12 0 0 3.65359e-26
6075 203 0.0015 -0.412842 -1.87856 0 5.25201e-13 3.58233e-12 0 0 8.75909e-27
7990 267 0.0015 -0.215808 -1.87844 0 -3.02196e-12 -1.40235e-12 0 0 2.14266e-27
7989 267 0.0015 -0.213482 -1.87932 0 2.48758e-14 1.99238e-12 0 0 1.73151e-27
10329 345 0.0015 -0.0659339 -1.87841 0 7.32986e-14 1.29976e-12 0 0 1.0911e-27
1955 66 0.0015 0.0137179 -1.87827 0 -2.6049e-13 2.96282e-12 0 5.20104e-21 8.76022e-27
10201 341 0.0015 0.290108 -1.87875 0 -2.47959e-13 2.15096e-12 0 0 8.82241e-27
3533 118 0.0015 0.655738 -1.87902 0 -6.04309e-12 -3.02449e-12 0 1.57149e-20 1.95396e-26
2647 89 0.0015 -0.593237 -1.87778 0 1.08084e-13 -5.9184e-13 0 1.59781e-20 1.1637e-27
10294 344 0.0015 -0.470773 -1.87669 0 -8.03763e-12 1.85996e-12 0 0 2.79021e-26
10293 344 0.0015 -0.467948 -1.87759 0 5.97461e-12 -1.436e-12 0 0 1.66968e-26
6077 203 0.0015 -0.416475 -1.87683 0 -1.01488e-12 3.71566e-12 0 0 1.00918e-26
6076 203 0.0015 -0.414658 -1.87769 0 4.54465e-12 -7.37246e-12 0 0 1.48832e-26
6034 202 0.0015 -0.327828 -1.87791 0 1.22517e-12 -1.93438e-12 0 0 1.11438e-26
7992 267 0.0015 -0.22046 -1.87668 0 -4.56678e-12 -4.63497e-13 0 0 5.92867e-27
7991 267 0.0015 -0.218134 -1.87756 0 4.37793e-12 2.0008e-12 0 0 3.97284e-27
10267 343 0.0015 0.42201 -1.87716 0 1.64155e-12 7.69853e-12 0 0 3.48136e-26
1479 50 0.0015 0.574675 -1.87722 0 6.46341e-13 -9.19096e-14 0 0 8.77808e-28
3532 118 0.0015 0.658275 -1.8771 0 1.87149e-12 1.19363e-12 0 0 9.68937e-27
2648 89 0.0015 -0.596958 -1.87493 0 -1.01004e-12 9.05937e-13 0 0 1.27341e-27
10296 344 0.0015 -0.476421 -1.87487 0 -4.91978e-12 5.93523e-13 0 0 1.00833e-26
10295 344 0.0015 -0.473597 -1.87578 0 7.15104e-12 -1.19802e-12 0 0 2.20315e-26
6080 203 0.0015 -0.421925 -1.87425 0 -1.12812e-11 -8.9212e-13 0 2.48474e-20 2.68774e-26
6079 203 0.0015 -0.420108 -1.87511 0 9.07033e-12 -3.44726e-12 0 2.48474e-20 2.61267e-26
6078 203 0.0015 -0.418291 -1.87597 0 -5.76146e-12 2.54797e-12 0 2.48474e-20 1.41986e-26
7995 267 0.0015 -0.227437 -1.87404 0 -5.90173e-13 2.95588e-12 0 0 1.34443e-27
7994 267 0.0015 -0.225111 -1.87492 0 -2.66201e-13 -4.91688e-13 0 0 9.34897e-29
7993 267 0.0015 -0.222785 -1.8758 0 2.48946e-12 -8.24801e-13 0 0 3.79486e-27
10330 345 0.0015 -0.0666107 -1.87531 0 -1.04589e-12 3.46972e-12 0 0 1.25475e-26
6003 201 0.0015 0.496967 -1.87498 0 2.45875e-13 5.0247e-13 0 5.99535e-21 2.2664e-27
1480 50 0.0015 0.576901 -1.87431 0 5.65672e-13 1.33613e-12 0 0 1.10854e-27
3531 118 0.0015 0.660812 -1.87519 0 4.27203e-12 2.33703e-12 0 0 1.39656e-26
2649 89 0.0015 -0.600679 -1.87207 0 -1.56908e-13 3.39838e-13 0 5.32605e-21 1.22557e-27
10299 344 0.0015 -0.484893 -1.87215 0 -3.50856e-12 1.8993e-12 0 5.05273e-20 8.66079e-27
10298 344 0.0015 -0.482069 -1.87306 0 -9.8256e-13 -5.03822e-13 0 3.36849e-20 2.48218e-27
10297 344 0.0015 -0.479245 -1.87396 0 3.62742e-12 -2.79969e-13 0 1.68424e-20 5.2369e-27
6082 203 0.0015 -0.425558 -1.87252 0 -6.58625e-12 3.96012e-12 0 2.48474e-20 1.63375e-26
6081 203 0.0015 -0.423741 -1.87338 0 1.08395e-11 2.23268e-12 0 0 2.21302e-26
7997 267 0.0015 -0.232089 -1.87228 0 6.40864e-13 2.69144e-12 0 1.00459e-20 2.7691e-27
7996 267 0.0015 -0.229763 -1.87316 0 1.54952e-12 -4.26724e-12 0 1.00459e-20 3.03781e-27
10331 345 0.0015 -0.0672875 -1.8722 0 1.67138e-12 -7.61029e-12 0 0 2.68359e-26
1956 66 0.0015 0.0132378 -1.87349 0 -7.18675e-14 2.93513e-13 0 0 1.02443e-27
8045 269 0.0015 0.152704 -1.87369 0 2.05689e-13 -1.80367e-12 0 0 4.32645e-27
10202 341 0.0015 0.289307 -1.87202 0 3.30455e-13 -2.95272e-12 0 0 1.00446e-26
4531 152 0.0015 0.366216 -1.8733 0 6.76943e-14 -4.07137e-13 0 0 4.12733e-28
10268 343 0.0015 0.422731 -1.8732 0 -1.41398e-12 -7.47497e-12 0 0 3.24083e-26
3530 118 0.0015 0.66335 -1.87327 0 -3.69671e-12 -1.53415e-12 0 0 1.31553e-26
10301 344 0.0015 -0.490541 -1.87033 0 1.06635e-13 1.94707e-12 0 1.68424e-20 2.66396e-27
10300 344 0.0015 -0.487717 -1.87124 0 4.09224e-12 -2.44119e-12 0 3.36849e-20 1.00085e-26
6084 203 0.0015 -0.429191 -1.8708 0 -1.14425e-12 2.81616e-12 0 2.48474e-20 2.81449e-27
6083 203 0.0015 -0.427374 -1.87166 0 2.78854e-12 -8.15528e-12 0 2.48474e-20 1.07535e-26
6035 202 0.0015 -0.332631 -1.87017 0 -1.93898e-12 3.11519e-12 0 0 1.73528e-26
7999 267 0.0015 -0.23674 -1.87052 0 -1.37125e-12 1.29795e-12 0 0 1.62598e-27
7998 267 0.0015 -0.234415 -1.8714 0 -1.66458e-12 -1.56141e-12 0 1.00459e-20 1.07692e-27
1481 50 0.0015 0.579128 -1.8714 0 -9.50629e-13 -2.07469e-12 0 0 2.5912e-27
3529 118 0.0015 0.665887 -1.87136 0 -9.87603e-13 -2.30193e-12 0 0 4.23664e-27
2650 89 0.0015 -0.6044 -1.86922 0 -5.36885e-13 2.4357e-13 0 5.32605e-21 3.47341e-27
10303 344 0.0015 -0.49619 -1.86852 0 2.12504e-12 1.34025e-12 0 3.36849e-20 2.42585e-27
10302 344 0.0015 -0.493366 -1.86943 0 -3.30944e-12 -1.43094e-12 0 1.68424e-20 3.24188e-27
6087 203 0.0015 -0.434641 -1.86821 0 7.32644e-13 -3.26701e-12 0 2.48474e-20 1.28668e-27
6085 203 0.0015 -0.431008 -1.86994 0 -5.10453e-13 3.20374e-12 0 0 1.87157e-27
6086 203 0.0015 -0.432824 -1.86908 0 6.89108e-13 -1.10666e-12 0 2.48474e-20 2.17213e-27
8001 267 0.0015 -0.241392 -1.86876 0 -6.04693e-12 -4.19027e-12 0 0 7.60288e-27
8000 267 0.0015 -0.239066 -1.86964 0 3.31418e-12 1.60286e-12 0 0 2.3029e-27
8012 268 0.0015 -0.171924 -1.86923 0 3.5959e-13 9.92349e-13 0 5.70726e-21 2.36159e-27
10332 345 0.0015 -0.0679644 -1.86909 0 -3.74974e-13 2.36817e-12 0 0 1.66602e-26
1957 66 0.0015 0.0127576 -1.86871 0 -1.09677e-13 1.16918e-12 0 0 5.69707e-27
10269 343 0.0015 0.423451 -1.86924 0 1.00976e-12 5.92629e-12 0 0 2.23883e-26
1482 50 0.0015 0.581354 -1.86848 0 6.58378e-13 1.82028e-12 0 0 2.02056e-27
3528 118 0.0015 0.668424 -1.86944 0 2.3036e-12 3.34176e-12 0 0 6.67497e-27
2651 89 0.0015 -0.608121 -1.86636 0 1.97204e-12 -1.60189e-12 0 1.06521e-20 4.24951e-27
10305 344 0.0015 -0.501838 -1.8667 0 5.91956e-13 4.56395e-13 0 3.36849e-20 3.09222e-27
10304 344 0.0015 -0.499014 -1.86761 0 8.1815e-13 -1.51078e-12 0 5.05273e-20 1.08155e-27
6089 203 0.0015 -0.438274 -1.86649 0 -9.46946e-13 3.17105e-13 0 0 2.75147e-28
6088 203 0.0015 -0.436457 -1.86735 0 1.34675e-13 2.28489e-12 0 2.48474e-20 1.10999e-27
8004 267 0.0015 -0.248369 -1.86612 0 -2.13259e-12 5.32583e-13 0 1.00459e-20 1.66672e-27
8003 267 0.0015 -0.246044 -1.867 0 -2.54988e-12 -2.73796e-12 0 0 4.57889e-27
8002 267 0.0015 -0.243718 -1.86788 0 7.47295e-12 4.0868e-12 0 0 1.08217e-26
8046 269 0.0015 0.152008 -1.86695 0 1.69505e-13 -1.70906e-12 0 3.6872e-21 8.15583e-27
6004 201 0.0015 0.499982 -1.86721 0 3.19188e-13 9.36642e-13 0 5.99535e-21 1.21104e-27
3527 118 0.0015 0.670962 -1.86752 0 -4.3515e-12 -4.01244e-12 0 0 1.82306e-26
10307 344 0.0015 -0.507486 -1.86489 0 2.81766e-13 5.83957e-13 0 0 1.00343e-27
10306 344 0.0015 -0.504662 -1.8658 0 -2.39646e-12 3.51689e-13 0 1.68424e-20 2.5781e-27
6090 203 0.0015 -0.440091 -1.86563 0 3.5016e-13 -4.76145e-13 0 0 1.51278e-28
8006 267 0.0015 -0.253021 -1.86436 0 2.28609e-12 4.35178e-13 0 1.00459e-20 1.38813e-27
8005 267 0.0015 -0.250695 -1.86524 0 6.73355e-13 7.49127e-13 0 1.00459e-20 1.5165e-27
10333 345 0.0015 -0.0686412 -1.86599 0 -1.84152e-13 1.4509e-13 0 0 4.20951e-27
10203 341 0.0015 0.288506 -1.8653 0 1.71252e-13 -1.27124e-12 0 0 9.4303e-27
4532 152 0.0015 0.364868 -1.86469 0 -2.76524e-13 1.71007e-12 0 0 4.63202e-27
10270 343 0.0015 0.424172 -1.86529 0 -3.66841e-13 -1.73169e-12 0 0 4.58798e-27
1483 50 0.0015 0.58358 -1.86557 0 9.59535e-13 6.0489e-13 0 6.81478e-21 2.95106e-27
3526 118 0.0015 0.673499 -1.86561 0 7.9068e-12 5.60312e-12 0 0 4.20956e-26
2652 89 0.0015 -0.611842 -1.86351 0 -4.05005e-13 3.71137e-13 0 5.32605e-21 2.12516e-27
10310 344 0.0015 -0.515959 -1.86217 0 6.38992e-12 -1.29712e-12 0 1.68424e-20 1.76866e-26
10309 344 0.0015 -0.513134 -1.86307 0 -3.55054e-12 1.4615e-12 0 0 7.20696e-27
10308 344 0.0015 -0.51031 -1.86398 0 1.48086e-12 -1.29075e-12 0 0 1.38853e-27
6036 202 0.0015 -0.337434 -1.86244 0 1.20043e-12 -1.96933e-12 0 0 7.64531e-27
8008 267 0.0015 -0.257673 -1.8626 0 1.52354e-12 2.99712e-12 0 0 1.15365e-28
8007 267 0.0015 -0.255347 -1.86348 0 -2.52179e-12 -2.31008e-12 0 0 1.00401e-27
10334 345 0.0015 -0.0693181 -1.86288 0 -1.11095e-12 5.79051e-12 0 0 1.9296e-26
1958 66 0.0015 0.0122775 -1.86393 0 3.30589e-13 -3.22072e-12 0 0 7.2429e-27
1484 50 0.0015 0.585807 -1.86266 0 -1.22128e-12 -1.97957e-12 0 6.81478e-21 3.1476e-27
3525 118 0.0015 0.676036 -1.86369 0 -7.9068e-12 -5.60312e-12 0 0 4.20956e-26
2653 89 0.0015 -0.615563 -1.86065 0 -1.6597e-12 1.6404e-12 0 5.32605e-21 4.34053e-27
10312 344 0.0015 -0.521607 -1.86035 0 3.18823e-12 1.04734e-12 0 3.36849e-20 3.03706e-27
10311 344 0.0015 -0.518783 -1.86126 0 -5.34226e-12 6.25619e-15 0 3.36849e-20 1.29584e-26
8010 267 0.0015 -0.262324 -1.86085 0 -9.69787e-16 7.21178e-13 0 0 4.52718e-29
8009 267 0.0015 -0.259998 -1.86172 0 -5.17809e-13 -2.21083e-12 0 0 4.64759e-29
8047 269 0.0015 0.151313 -1.86021 0 -2.81895e-13 2.80104e-12 0 3.6872e-21 9.03157e-27
10271 343 0.0015 0.424893 -1.86133 0 3.66759e-13 1.41541e-12 0 0 3.29737e-27
3524 118 0.0015 0.678573 -1.86178 0 4.3515e-12 4.01244e-12 0 0 1.82306e-26
10314 344 0.0015 -0.527255 -1.85854 0 4.28868e-12 -7.68297e-13 0 0 1.08803e-26
10313 344 0.0015 -0.524431 -1.85944 0 -5.19611e-12 -1.45217e-13 0 1.68424e-20 1.18995e-26
10335 345 0.0015 -0.0699949 -1.85978 0 1.07758e-12 -5.74725e-12 0 0 1.91717e-26
1959 66 0.0015 0.0117974 -1.85915 0 8.35255e-14 -7.23418e-13 0 0 7.85346e-27
4771 160 0.0015 0.0785585 -1.85825 0 -3.21936e-14 1.08616e-12 0 0 3.01789e-27
10204 341 0.0015 0.287705 -1.85857 0 -5.24349e-13 4.38059e-12 0 0 1.83669e-26
6005 201 0.0015 0.502997 -1.85945 0 -1.94423e-13 -5.04946e-13 0 5.99535e-21 9.224e-28
1485 50 0.0015 0.588033 -1.85975 0 -1.14906e-12 1.64101e-13 0 6.81478e-21 2.14555e-27
3523 118 0.0015 0.681111 -1.85986 0 -2.3036e-12 -3.34176e-12 0 0 6.67497e-27
2654 89 0.0015 -0.619284 -1.8578 0 1.05523e-12 -1.35365e-12 0 0 3.89743e-27
10316 344 0.0015 -0.532903 -1.85672 0 -6.69889e-12 1.12272e-12 0 0 1.91284e-26
10315 344 0.0015 -0.530079 -1.85763 0 2.20709e-12 2.1825e-13 0 0 6.94545e-27
8013 268 0.0015 -0.167482 -1.85688 0 1.32948e-14 2.97171e-14 0 5.70726e-21 8.02687e-28
10336 345 0.0015 -0.0706718 -1.85667 0 2.85427e-13 -8.0133e-13 0 0 6.18506e-27
4533 152 0.0015 0.36352 -1.85607 0 3.79011e-13 -2.32696e-12 0 0 6.83029e-27
10272 343 0.0015 0.425614 -1.85738 0 -7.98616e-13 -4.40166e-12 0 0 1.18188e-26
1486 50 0.0015 0.59026 -1.85684 0 1.14906e-12 -1.64101e-13 0 6.81478e-21 2.14555e-27
3522 118 0.0015 0.683648 -1.85795 0 9.87603e-13 2.30193e-12 0 0 4.23664e-27
3521 118 0.0015 0.686185 -1.85603 0 3.69671e-12 1.53415e-12 0 0 1.31553e-26
2655 89 0.0015 -0.623004 -1.85494 0 1.59199e-12 -9.37116e-13 0 0 4.07096e-27
10318 344 0.0015 -0.538552 -1.85491 0 -3.85084e-12 2.92148e-12 0 0 8.66354e-27
10317 344 0.0015 -0.535727 -1.85581 0 5.97341e-12 -2.47213e-12 0 0 1.79095e-26
6037 202 0.0015 -0.342237 -1.85471 0 -4.80257e-13 8.13678e-13 0 0 1.45533e-27
1960 66 0.0015 0.0113172 -1.85437 0 -2.34652e-13 2.09442e-12 0 0 5.56133e-27
3520 118 0.0015 0.688722 -1.85412 0 -4.27203e-12 -2.33703e-12 0 0 1.39656e-26
2656 89 0.0015 -0.626725 -1.85209 0 -1.4038e-12 9.9889e-13 0 0 4.06769e-27
10320 344 0.0015 -0.5442 -1.85309 0 -8.083e-13 5.35362e-13 0 0 7.17737e-28
10319 344 0.0015 -0.541376 -1.854 0 2.49007e-12 -1.96142e-12 0 0 4.13809e-27
10337 345 0.0015 -0.0713486 -1.85356 0 -4.91681e-13 2.69554e-12 0 1.57149e-20 4.66592e-27
8048 269 0.0015 0.150617 -1.85348 0 -9.73216e-14 7.74175e-13 0 3.6872e-21 5.55768e-27
10273 343 0.0015 0.426335 -1.85342 0 5.54397e-13 3.32578e-12 0 0 8.98753e-27
1487 50 0.0015 0.592486 -1.85392 0 1.22128e-12 1.97957e-12 0 6.81478e-21 3.1476e-27
3519 118 0.0015 0.69126 -1.8522 0 -1.87149e-12 -1.19363e-12 0 0 9.68937e-27
10338 345 0.0015 -0.0720254 -1.85046 0 -8.21895e-13 2.48817e-12 0 1.57149e-20 8.69893e-27
10205 341 0.0015 0.286904 -1.85184 0 5.10666e-13 -4.35112e-12 0 0 1.81259e-26
6006 201 0.0015 0.506013 -1.85168 0 7.75201e-14 1.48171e-13 0 0 1.61988e-28
1488 50 0.0015 0.594712 -1.85101 0 -9.59535e-13 -6.0489e-13 0 6.81478e-21 2.95106e-27
3518 118 0.0015 0.693797 -1.85028 0 6.04309e-12 3.02449e-12 0 1.57149e-20 1.95396e-26
2657 89 0.0015 -0.630446 -1.84923 0 -3.95743e-14 -1.12825e-13 0 0 1.13284e-29
1961 66 0.0015 0.0108371 -1.84959 0 -1.48553e-13 1.89399e-12 0 0 5.16341e-27
4772 160 0.0015 0.0782973 -1.84905 0 9.18975e-14 -3.11007e-12 0 0 1.34964e-26
10274 343 0.0015 0.427056 -1.84946 0 -1.85218e-13 -1.5069e-12 0 0 1.33971e-27
1489 50 0.0015 0.596939 -1.8481 0 -6.58378e-13 -1.82028e-12 0 0 2.02056e-27
3517 118 0.0015 0.696334 -1.84837 0 -2.73016e-12 -7.79293e-13 0 1.57149e-20 1.12632e-26
2658 89 0.0015 -0.634167 -1.84638 0 6.72208e-13 -1.24906e-13 0 5.32605e-21 6.31207e-28
6038 202 0.0015 -0.34704 -1.84697 0 8.80101e-15 -2.84464e-14 0 0 2.10633e-28
10339 345 0.0015 -0.0727023 -1.84735 0 9.60523e-13 -3.01826e-12 0 3.14298e-20 8.4865e-27
8049 269 0.0015 0.149922 -1.84674 0 2.60674e-13 -2.3583e-12 0 0 5.77006e-27
6541 219 0.0015 0.213251 -1.84656 0 -9.8087e-15 1.58726e-13 0 3.51396e-21 4.99256e-29
4534 152 0.0015 0.362172 -1.84745 0 -3.8691e-13 2.28822e-12 0 5.72705e-21 6.5967e-27
3516 118 0.0015 0.698871 -1.84645 0 -3.01668e-12 -1.79184e-12 0 3.14298e-20 6.85671e-27
8014 268 0.0015 -0.163039 -1.84452 0 -7.47505e-14 -1.92475e-13 0 0 5.13224e-28
10340 345 0.0015 -0.0733791 -1.84424 0 7.07227e-13 -3.99685e-12 0 1.57149e-20 1.49186e-26
1962 66 0.0015 0.010357 -1.84481 0 1.26293e-13 -1.94082e-12 0 5.20104e-21 5.15813e-27
10206 341 0.0015 0.286103 -1.84511 0 -3.91353e-13 3.17638e-12 0 3.6872e-21 1.04249e-26
10275 343 0.0015 0.427777 -1.84551 0 6.79071e-13 4.92917e-12 0 0 1.92979e-26
1490 50 0.0015 0.599165 -1.84519 0 9.50629e-13 2.07469e-12 0 0 2.5912e-27
3515 118 0.0015 0.701409 -1.84454 0 3.47472e-12 1.08526e-12 0 1.57149e-20 6.77214e-27
2659 89 0.0015 -0.637888 -1.84352 0 -3.03796e-13 4.62698e-15 0 1.06521e-20 8.83239e-28
6007 201 0.0015 0.509028 -1.84391 0 -6.13833e-13 -1.64084e-12 0 5.99535e-21 5.36121e-27
1491 50 0.0015 0.601391 -1.84228 0 -5.65672e-13 -1.33613e-12 0 0 1.10854e-27
3514 118 0.0015 0.703946 -1.84262 0 4.54393e-13 1.66683e-12 0 1.57149e-20 4.53505e-27
2660 89 0.0015 -0.641609 -1.84066 0 -1.33723e-13 -9.60381e-14 0 1.59781e-20 4.68997e-28
10341 345 0.0015 -0.074056 -1.84114 0 -1.48189e-12 6.63267e-12 0 1.57149e-20 2.12885e-26
1963 66 0.0015 0.00987681 -1.84004 0 -2.77879e-14 9.45461e-13 0 5.20104e-21 1.24545e-27
10276 343 0.0015 0.428498 -1.84155 0 -6.79071e-13 -4.92917e-12 0 0 1.92979e-26
3513 118 0.0015 0.706483 -1.84071 0 -3.34404e-12 -3.51439e-12 0 0 1.02355e-26
6039 202 0.0015 -0.351842 -1.83924 0 3.68891e-13 -5.85081e-13 0 0 7.28983e-28
10342 345 0.0015 -0.0747328 -1.83803 0 7.59912e-13 -2.35752e-12 0 0 6.41557e-27
4773 160 0.0015 0.0780361 -1.83985 0 -9.22486e-14 3.10853e-12 0 0 1.34879e-26
8050 269 0.0015 0.149226 -1.84 0 -5.3054e-14 3.92073e-13 0 3.6872e-21 1.65987e-27
6542 219 0.0015 0.21269 -1.83947 0 -2.10702e-14 9.80212e-14 0 3.51396e-21 1.81761e-28
10207 341 0.0015 0.285302 -1.83839 0 6.45959e-14 -2.09417e-13 0 3.6872e-21 4.07565e-27
4535 152 0.0015 0.360823 -1.83883 0 1.6092e-13 -8.13898e-13 0 5.72705e-21 4.48408e-27
1492 50 0.0015 0.603618 -1.83936 0 -6.46341e-13 9.19096e-14 0 0 8.77808e-28
3512 118 0.0015 0.70902 -1.83879 0 2.93569e-12 2.86188e-12 0 0 7.98342e-27
2661 89 0.0015 -0.64533 -1.83781 0 -1.95404e-12 1.80112e-12 0 2.66302e-20 6.78576e-27
10277 343 0.0015 0.429219 -1.8376 0 1.85218e-13 1.5069e-12 0 0 1.33971e-27
6008 201 0.0015 0.512043 -1.83614 0 1.04555e-12 2.85958e-12 0 1.19907e-20 1.07272e-26
1493 50 0.0015 0.605844 -1.83645 0 2.49758e-12 1.52742e-12 0 0 4.45379e-27
3511 118 0.0015 0.711558 -1.83688 0 -1.03667e-12 -9.73158e-13 0 0 1.76498e-27
2662 89 0.0015 -0.649051 -1.83495 0 1.26471e-12 -9.2154e-13 0 2.13042e-20 7.18451e-27
10343 345 0.0015 -0.0754097 -1.83493 0 -1.33604e-13 -1.49737e-12 0 0 1.34379e-27
1964 66 0.0015 0.00939668 -1.83526 0 1.68128e-13 -2.0196e-12 0 5.20104e-21 2.74484e-27
2663 89 0.0015 -0.652772 -1.8321 0 1.56231e-12 -1.56387e-12 0 1.59781e-20 3.57336e-27
10171 340 0.0015 -0.234195 -1.83312 0 6.73755e-13 -9.18002e-13 0 0 2.81489e-27
8015 268 0.0015 -0.158597 -1.83216 0 6.90269e-14 1.83418e-13 0 0 4.87095e-28
8051 269 0.0015 0.14853 -1.83326 0 -1.67375e-13 1.74206e-12 0 3.6872e-21 3.60639e-27
6543 219 0.0015 0.212128 -1.83239 0 9.42046e-14 -7.97877e-13 0 3.51396e-21 7.17163e-28
10278 343 0.0015 0.429939 -1.83364 0 -5.54397e-13 -3.32578e-12 0 0 8.98753e-27
1494 50 0.0015 0.60807 -1.83354 0 -2.80656e-12 -1.44978e-12 0 0 4.67429e-27
6040 202 0.0015 -0.356645 -1.83151 0 -4.06084e-13 6.32233e-13 0 0 7.95087e-28
10344 345 0.0015 -0.0760865 -1.83182 0 -1.21616e-12 8.04571e-12 0 0 4.34251e-26
1965 66 0.0015 0.00891654 -1.83048 0 -2.25282e-13 2.28781e-12 0 0 3.54646e-27
4774 160 0.0015 0.0777749 -1.83066 0 4.86116e-14 -1.58814e-12 0 0 3.65808e-27
10208 341 0.0015 0.284501 -1.83166 0 -3.25895e-14 -5.16916e-14 0 7.37441e-21 3.0744e-27
4536 152 0.0015 0.359475 -1.83021 0 8.30829e-14 -6.40764e-13 0 5.72705e-21 5.88079e-28
1495 50 0.0015 0.610297 -1.83063 0 -9.92936e-13 -3.10885e-12 0 0 1.71204e-26
2664 89 0.0015 -0.656493 -1.82924 0 -1.79967e-12 1.74585e-12 0 0 4.22184e-27
10345 345 0.0015 -0.0767633 -1.82871 0 3.20792e-12 -1.64417e-11 0 0 1.2765e-25
10279 343 0.0015 0.43066 -1.82968 0 7.98616e-13 4.40166e-12 0 0 1.18188e-26
6009 201 0.0015 0.515058 -1.82837 0 -6.75213e-13 -1.84652e-12 0 1.7986e-20 5.925e-27
2665 89 0.0015 -0.660213 -1.82639 0 1.0629e-12 -1.19521e-12 0 0 1.70774e-27
10172 340 0.0015 -0.238704 -1.82673 0 -1.43504e-12 1.92528e-12 0 6.39056e-21 6.27314e-27
8052 269 0.0015 0.147835 -1.82652 0 3.05166e-13 -2.99983e-12 0 3.6872e-21 8.69669e-27
1496 50 0.0015 0.612523 -1.82772 0 2.96139e-12 4.44279e-12 0 0 1.80622e-26
10346 345 0.0015 -0.0774402 -1.82561 0 -2.26617e-12 1.07941e-11 0 0 8.67715e-26
1966 66 0.0015 0.0084364 -1.8257 0 3.59534e-13 -3.46318e-12 0 0 8.76013e-27
6544 219 0.0015 0.211567 -1.8253 0 5.15326e-14 -1.22933e-12 0 0 6.79975e-27
10209 341 0.0015 0.2837 -1.82493 0 2.56096e-13 -2.04475e-12 0 3.6872e-21 4.08101e-27
10280 343 0.0015 0.431381 -1.82573 0 -3.66759e-13 -1.41541e-12 0 0 3.29737e-27
1497 50 0.0015 0.614749 -1.8248 0 3.15268e-13 4.56745e-13 0 0 5.43431e-27
2666 89 0.0015 -0.663934 -1.82353 0 -2.8521e-13 6.71356e-13 0 0 4.55003e-28
6041 202 0.0015 -0.361448 -1.82377 0 -5.169e-15 1.41521e-14 0 0 3.32289e-28
10347 345 0.0015 -0.078117 -1.8225 0 -6.85648e-14 6.44352e-13 0 0 4.21056e-27
2667 89 0.0015 -0.667655 -1.82068 0 9.59724e-13 -1.09099e-12 0 0 2.48303e-27
10173 340 0.0015 -0.243212 -1.82034 0 1.69676e-12 -2.28028e-12 0 6.39056e-21 8.87579e-27
1967 66 0.0015 0.00795626 -1.82092 0 -3.65547e-13 3.46649e-12 0 0 8.77304e-27
4775 160 0.0015 0.0775136 -1.82146 0 -1.08626e-14 2.85213e-13 0 0 7.70554e-28
4537 152 0.0015 0.358127 -1.82159 0 -7.59321e-14 4.44432e-13 0 0 2.51535e-28
10281 343 0.0015 0.432102 -1.82177 0 3.66841e-13 1.73169e-12 0 0 4.58798e-27
6010 201 0.0015 0.518074 -1.8206 0 6.67808e-13 1.69445e-12 0 1.7986e-20 4.94141e-27
1498 50 0.0015 0.616976 -1.82189 0 -1.67973e-12 -1.48936e-12 0 0 3.72773e-27
8016 268 0.0015 -0.154154 -1.81981 0 -3.89581e-13 -1.07697e-12 0 0 2.79671e-27
10348 345 0.0015 -0.0787939 -1.81939 0 8.59535e-14 -5.87261e-13 0 0 4.32217e-27
8053 269 0.0015 0.147139 -1.81978 0 -2.77595e-13 2.64498e-12 0 0 7.1755e-27
6545 219 0.0015 0.211005 -1.81821 0 -2.518e-13 3.73073e-12 0 0 1.38387e-26
10210 341 0.0015 0.282899 -1.8182 0 -1.54956e-13 1.50538e-12 0 3.6872e-21 2.83219e-27
1499 50 0.0015 0.619202 -1.81898 0 1.68004e-12 1.09119e-12 0 0 2.61461e-27
2668 89 0.0015 -0.671376 -1.81782 0 -1.67923e-12 1.55833e-12 0 5.32605e-21 3.53817e-27
6042 202 0.0015 -0.366251 -1.81604 0 -2.37771e-14 8.35507e-14 0 0 4.80381e-28
10349 345 0.0015 -0.0794707 -1.81629 0 5.3265e-13 -2.40517e-12 0 0 2.67966e-27
1968 66 0.0015 0.00747613 -1.81614 0 -2.18846e-14 4.05522e-13 0 5.20104e-21 5.68304e-27
10282 343 0.0015 0.432823 -1.81781 0 -1.00976e-12 -5.92629e-12 0 0 2.23883e-26
1500 50 0.0015 0.621428 -1.81607 0 -1.16707e-12 -1.08517e-12 0 0 2.51271e-27
2669 89 0.0015 -0.675097 -1.81497 0 -9.10093e-13 4.71606e-13 0 5.32605e-21 5.81179e-27
5941 199 0.0015 0.740778 -1.81551 0 2.79779e-13 1.11689e-12 0 0 3.53726e-27
2670 89 0.0015 -0.678818 -1.81211 0 1.55716e-12 -1.10854e-12 0 5.32605e-21 4.75392e-27
10174 340 0.0015 -0.24772 -1.81396 0 -1.28044e-12 1.72519e-12 0 1.27811e-20 6.11905e-27
10350 345 0.0015 -0.0801475 -1.81318 0 -2.66735e-13 1.194e-12 0 0 1.3218e-27
4776 160 0.0015 0.0772524 -1.81226 0 -2.39178e-14 8.46874e-13 0 2.71488e-21 1.13256e-27
8054 269 0.0015 0.146443 -1.81304 0 2.26165e-13 -2.21024e-12 0 0 4.73274e-27
4538 152 0.0015 0.356779 -1.81297 0 2.18042e-13 -1.29424e-12 0 0 2.85359e-27
10283 343 0.0015 0.433544 -1.81386 0 1.41398e-12 7.47497e-12 0 0 3.24083e-26
6011 201 0.0015 0.521089 -1.81283 0 -6.29638e-13 -1.52639e-12 0 1.7986e-20 4.67508e-27
1969 66 0.0015 0.00699599 -1.81136 0 5.51631e-13 -5.76818e-12 0 1.04021e-20 2.65607e-26
6546 219 0.0015 0.210443 -1.81113 0 3.6526e-14 -7.30742e-13 0 0 1.06294e-26
10211 341 0.0015 0.282098 -1.81148 0 7.5439e-14 -1.00345e-12 0 0 1.0604e-27
6043 202 0.0015 -0.371054 -1.8083 0 7.3113e-13 -1.27058e-12 0 0 3.46541e-27
10284 343 0.0015 0.434265 -1.8099 0 -1.64155e-12 -7.69853e-12 0 0 3.48136e-26
10175 340 0.0015 -0.252228 -1.80757 0 6.75628e-13 -9.03966e-13 0 6.39056e-21 1.38197e-27
8017 268 0.0015 -0.149712 -1.80745 0 4.65495e-13 1.28797e-12 0 0 3.53155e-27
1970 66 0.0015 0.00651585 -1.80658 0 -5.20686e-13 5.66839e-12 0 1.04021e-20 2.61244e-26
8055 269 0.0015 0.145748 -1.8063 0 -3.57925e-13 3.60151e-12 0 0 1.34465e-26
5942 199 0.0015 0.743061 -1.80618 0 -7.65462e-13 -3.03192e-12 0 0 1.39513e-26
6547 219 0.0015 0.209882 -1.80404 0 2.11228e-13 -2.68471e-12 0 0 7.21076e-27
10212 341 0.0015 0.281297 -1.80475 0 4.98408e-14 -4.28273e-15 0 3.6872e-21 1.73134e-27
4539 152 0.0015 0.35543 -1.80435 0 -3.25125e-14 2.03777e-13 0 5.72705e-21 4.43265e-27
10285 343 0.0015 0.434986 -1.80595 0 1.02291e-12 4.54448e-12 0 0 2.0445e-26
6012 201 0.0015 0.524104 -1.80507 0 -3.55486e-13 -1.04073e-12 0 1.19907e-20 4.37219e-27