ITEM: TIMESTEP
24510
ITEM: NUMBER OF ATOMS
10500
ITEM: BOX BOUNDS pp pp pp
-1.0249999999999999e+00 1.0249999999999999e+00
-2.0000000000000000e+00 2.0000000000000000e+00
-5.0000000000000003e-02 5.0000000000000003e-02
ITEM: ATOMS id type radius x y z fx fy fz c_bendingE c_stretchingE
10321 345 0.0015 -0.0605191 -1.90326 0 -2.66472e-13 1.5429e-12 0 0 2.16082e-27
6031 202 0.0015 -0.31342 -1.90111 0 3.00625e-13 -4.72833e-13 0 0 7.93822e-28
10322 345 0.0015 -0.061196 -1.90016 0 7.2517e-13 -3.7854e-12 0 1.57149e-20 6.78672e-27
8041 269 0.0015 0.155487 -1.90065 0 6.18031e-14 -4.84192e-13 0 3.6872e-21 4.4812e-28
10261 343 0.0015 0.417684 -1.90089 0 -5.87934e-13 -2.9351e-12 0 0 1.00062e-26
1471 50 0.0015 0.556864 -1.90052 0 1.76741e-15 2.46513e-14 0 0 4.34496e-31
10323 345 0.0015 -0.0618728 -1.89705 0 -1.12075e-12 4.54747e-12 0 1.57149e-20 9.68327e-27
1951 66 0.0015 0.0156385 -1.89738 0 -2.35707e-16 1.67977e-14 0 5.20104e-21 3.73899e-31
10262 343 0.0015 0.418405 -1.89694 0 1.35639e-12 6.43085e-12 0 0 2.42975e-26
1472 50 0.0015 0.559091 -1.8976 0 -6.13716e-13 -1.45634e-12 0 0 2.31913e-27
2641 89 0.0015 -0.570912 -1.89491 0 7.73694e-13 -4.12048e-13 0 0 9.74016e-28
1473 50 0.0015 0.561317 -1.89469 0 2.68274e-13 2.22966e-12 0 0 2.50277e-27
2642 89 0.0015 -0.574633 -1.89206 0 -1.86033e-13 -2.76901e-13 0 0 1.99585e-27
6032 202 0.0015 -0.318223 -1.89337 0 -7.99464e-13 1.26044e-12 0 0 2.9916e-27
10324 345 0.0015 -0.0625496 -1.89394 0 1.08109e-12 -3.47495e-12 0 1.57149e-20 6.3986e-27
1952 66 0.0015 0.0151583 -1.8926 0 1.05886e-13 -1.0776e-12 0 1.04021e-20 1.51657e-27
8042 269 0.0015 0.154791 -1.89391 0 -1.2879e-13 9.55687e-13 0 3.6872e-21 8.74294e-28
10263 343 0.0015 0.419126 -1.89298 0 -1.24895e-12 -5.57416e-12 0 0 1.93634e-26
3540 118 0.0015 0.637977 -1.89243 0 8.14843e-13 7.41465e-13 0 1.57149e-20 1.06291e-27
6061 203 0.0015 -0.387409 -1.89062 0 -1.32501e-12 -2.6975e-13 0 0 6.53203e-28
10325 345 0.0015 -0.0632265 -1.89084 0 1.16048e-13 -1.22801e-12 0 0 6.67204e-27
10231 342 0.0015 0.215 -1.89 0 3.55763e-13 0 0 0 2.42769e-29
10232 342 0.0015 0.21569 -1.89 0 -1.12241e-12 0 0 0 1.36937e-28
10233 342 0.0015 0.216379 -1.89 0 2.57192e-12 0 0 0 7.36682e-28
10234 342 0.0015 0.217069 -1.89 0 -3.76677e-12 0 0 0 1.36158e-27
10235 342 0.0015 0.217759 -1.89 0 4.23742e-12 0 0 0 1.72967e-27
10236 342 0.0015 0.218448 -1.89 0 -4.67318e-12 0 0 0 2.09263e-27
10237 342 0.0015 0.219138 -1.89 0 4.9985e-12 0 0 0 2.39722e-27
10238 342 0.0015 0.219828 -1.89 0 -5.17894e-12 0 0 0 2.56982e-27
10239 342 0.0015 0.220517 -1.89 0 5.21561e-12 0 0 0 2.60617e-27
10240 342 0.0015 0.221207 -1.89 0 -5.46938e-12 0 0 0 2.86892e-27
10241 342 0.0015 0.221897 -1.89 0 5.6507e-12 0 0 0 3.05825e-27
10242 342 0.0015 0.222586 -1.89 0 -5.25183e-12 0 0 0 2.65642e-27
10243 342 0.0015 0.223276 -1.89 0 4.92562e-12 0 0 0 2.32468e-27
10244 342 0.0015 0.223966 -1.89 0 -5.79448e-12 0 0 0 3.27981e-27
10245 342 0.0015 0.224655 -1.89 0 8.18507e-12 0 0 0 6.65807e-27
10246 342 0.0015 0.225345 -1.89 0 -8.18507e-12 0 0 0 6.65807e-27
10247 342 0.0015 0.226034 -1.89 0 5.79448e-12 0 0 0 3.27981e-27
10248 342 0.0015 0.226724 -1.89 0 -4.92562e-12 0 0 0 2.32468e-27
10249 342 0.0015 0.227414 -1.89 0 5.25183e-12 0 0 0 2.65642e-27
10250 342 0.0015 0.228103 -1.89 0 -5.6507e-12 0 0 0 3.05825e-27
10251 342 0.0015 0.228793 -1.89 0 5.46938e-12 0 0 0 2.86892e-27
10252 342 0.0015 0.229483 -1.89 0 -5.21561e-12 0 0 0 2.60617e-27
10253 342 0.0015 0.230172 -1.89 0 5.17894e-12 0 0 0 2.56982e-27
10254 342 0.0015 0.230862 -1.89 0 -4.9985e-12 0 0 0 2.39722e-27
10255 342 0.0015 0.231552 -1.89 0 4.67318e-12 0 0 0 2.09263e-27
10256 342 0.0015 0.232241 -1.89 0 -4.23742e-12 0 0 0 1.72967e-27
10257 342 0.0015 0.232931 -1.89 0 3.76677e-12 0 0 0 1.36158e-27
10258 342 0.0015 0.233621 -1.89 0 -2.57192e-12 0 0 0 7.36682e-28
10259 342 0.0015 0.23431 -1.89 0 1.12241e-12 0 0 0 1.36937e-28
10260 342 0.0015 0.235 -1.89 0 -3.55763e-13 0 0 0 2.42769e-29
6001 201 0.0015 0.490936 -1.89052 0 -8.28294e-13 -2.20694e-12 0 0 1.28607e-26
1474 50 0.0015 0.563543 -1.89178 0 1.60466e-12 -6.85131e-14 0 0 2.0271e-27
3539 118 0.0015 0.640514 -1.89051 0 -1.58724e-12 -9.71952e-13 0 1.57149e-20 1.5667e-27
2643 89 0.0015 -0.578354 -1.8892 0 -1.19693e-12 1.15177e-12 0 0 1.78452e-27
6063 203 0.0015 -0.391043 -1.8889 0 -9.87709e-13 1.66067e-12 0 0 7.261e-28
6064 203 0.0015 -0.392859 -1.88804 0 1.89129e-12 -6.08384e-12 0 0 7.01787e-27
6062 203 0.0015 -0.389226 -1.88976 0 2.25322e-12 5.45209e-13 0 0 9.43202e-28
10264 343 0.0015 0.419847 -1.88903 0 7.87277e-13 3.85065e-12 0 0 8.68528e-27
1475 50 0.0015 0.56577 -1.88887 0 -6.7188e-13 7.31251e-14 0 0 2.85186e-27
3538 118 0.0015 0.643052 -1.8886 0 1.22442e-12 -1.67531e-13 0 1.57149e-20 5.16699e-28
2644 89 0.0015 -0.582074 -1.88635 0 1.79819e-13 -4.80942e-14 0 0 1.22111e-27
6066 203 0.0015 -0.396492 -1.88631 0 4.40652e-12 -3.84741e-12 0 2.48474e-20 9.16763e-27
6065 203 0.0015 -0.394676 -1.88717 0 -4.10734e-12 7.15819e-12 0 2.48474e-20 1.28357e-26
7981 267 0.0015 -0.194876 -1.88635 0 3.59195e-13 -9.80947e-13 0 0 3.22179e-28
10326 345 0.0015 -0.0639033 -1.88773 0 -1.00293e-12 4.09615e-12 0 1.57149e-20 8.06268e-27
1953 66 0.0015 0.0146782 -1.88782 0 -1.29284e-13 1.29153e-12 0 1.56031e-20 1.58796e-27
8043 269 0.0015 0.154095 -1.88717 0 1.14744e-14 1.68802e-13 0 3.6872e-21 1.2033e-27
3537 118 0.0015 0.645589 -1.88668 0 5.19422e-13 1.12117e-12 0 0 1.30806e-27
6068 203 0.0015 -0.400126 -1.88459 0 5.6189e-12 -6.4779e-13 0 0 1.09716e-26
6067 203 0.0015 -0.398309 -1.88545 0 -6.48126e-12 1.71461e-12 0 2.48474e-20 1.32722e-26
6033 202 0.0015 -0.323025 -1.88564 0 9.39562e-13 -1.48978e-12 0 2.74394e-21 3.93573e-27
7983 267 0.0015 -0.199527 -1.8846 0 4.5889e-12 -2.56991e-12 0 0 9.3493e-27
7982 267 0.0015 -0.197202 -1.88548 0 -2.45622e-12 2.59804e-12 0 0 4.75547e-27
10327 345 0.0015 -0.0645802 -1.88463 0 3.2897e-13 -8.39324e-13 0 3.14298e-20 3.39836e-27
10265 343 0.0015 0.420568 -1.88507 0 -3.52852e-13 -2.50163e-12 0 0 4.20175e-27
1476 50 0.0015 0.567996 -1.88596 0 -1.26252e-12 -9.53619e-13 0 0 1.29377e-27
3536 118 0.0015 0.648126 -1.88476 0 -1.85138e-12 -8.291e-13 0 0 1.81344e-27
2645 89 0.0015 -0.585795 -1.88349 0 4.42967e-14 -1.20254e-13 0 5.32605e-21 7.64677e-28
6071 203 0.0015 -0.405575 -1.882 0 -3.47299e-12 -3.87468e-12 0 0 7.29898e-28
6070 203 0.0015 -0.403759 -1.88287 0 3.39833e-13 3.97374e-12 0 0 1.9152e-27
6069 203 0.0015 -0.401942 -1.88373 0 -7.19069e-14 -1.92048e-12 0 0 2.43453e-27
7985 267 0.0015 -0.204179 -1.88284 0 2.6463e-13 1.10752e-12 0 1.00459e-20 4.73664e-29
7984 267 0.0015 -0.201853 -1.88372 0 -2.62276e-12 8.84876e-13 0 1.00459e-20 4.9227e-27
1954 66 0.0015 0.0141981 -1.88304 0 4.64145e-14 -4.15474e-13 0 1.04021e-20 1.17973e-28
6002 201 0.0015 0.493952 -1.88275 0 1.30761e-12 3.52518e-12 0 0 1.74129e-26
1477 50 0.0015 0.570222 -1.88304 0 1.04765e-12 -8.81604e-14 0 0 2.86349e-28
3535 118 0.0015 0.650663 -1.88285 0 2.61061e-12 1.09514e-12 0 0 3.97079e-27
2646 89 0.0015 -0.589516 -1.88064 0 6.20232e-13 -5.73203e-13 0 5.32605e-21 4.71531e-28
6073 203 0.0015 -0.409209 -1.88028 0 2.43525e-12 1.61858e-12 0 2.48474e-20 6.55026e-28
6072 203 0.0015 -0.407392 -1.88114 0 4.59794e-13 5.58727e-13 0 0 1.07999e-27
7988 267 0.0015 -0.211156 -1.8802 0 -8.06329e-13 -2.57384e-12 0 2.00918e-20 5.44352e-28
7987 267 0.0015 -0.208831 -1.88108 0 1.6793e-12 3.50657e-12 0 2.00918e-20 1.07403e-27
7986 267 0.0015 -0.206505 -1.88196 0 -1.82438e-12 -2.59447e-12 0 3.01377e-20 7.75275e-28
8011 268 0.0015 -0.176367 -1.88159 0 3.31971e-13 9.26471e-13 0 0 3.53267e-27
10328 345 0.0015 -0.065257 -1.88152 0 5.51876e-13 -2.75606e-12 0 3.14298e-20 3.99576e-27
8044 269 0.0015 0.1534 -1.88043 0 1.75491e-13 -1.86401e-12 0 0 3.62222e-27
10266 343 0.0015 0.421289 -1.88111 0 -2.6674e-13 -3.42467e-13 0 1.24237e-20 1.96617e-27
1478 50 0.0015 0.572449 -1.88013 0 1.68061e-14 9.30214e-13 0 0 6.31211e-28
3534 118 0.0015 0.653201 -1.88093 0 -2.72761e-12 -1.93536e-12 0 1.57149e-20 5.09965e-27
10292 344 0.0015 -0.465124 -1.8785 0 4.06453e-12 -1.12011e-12 0 0 7.31103e-27
10291 344 0.0015 -0.4623 -1.87941 0 -1.96906e-12 6.82549e-13 0 0 3.57673e-27
6074 203 0.0015 -0.411025 -1.87942 0 1.72951e-12 3.95383e-12 0 2.48474e-20 3.41405e-28
6075 203 0.0015 -0.412842 -1.87856 0 -3.71374e-12 -9.99186e-12 0 2.48474e-20 1.24133e-27
7990 267 0.0015 -0.215808 -1.87844 0 -3.47399e-12 -1.33331e-12 0 2.00918e-20 3.67414e-27
7989 267 0.0015 -0.213482 -1.87932 0 3.23891e-12 6.81444e-13 0 1.00459e-20 3.6821e-27
10329 345 0.0015 -0.0659339 -1.87841 0 -6.24825e-13 2.58326e-12 0 1.57149e-20 3.78124e-27
1955 66 0.0015 0.0137179 -1.87827 0 -9.57706e-14 8.44206e-13 0 5.20104e-21 6.33459e-28
10201 341 0.0015 0.290108 -1.87875 0 1.23554e-13 -9.41569e-13 0 3.6872e-21 1.69686e-27
3533 118 0.0015 0.655738 -1.87902 0 2.21924e-13 4.90578e-13 0 1.57149e-20 2.35145e-27
2647 89 0.0015 -0.593237 -1.87778 0 -6.43554e-13 9.28886e-13 0 5.32605e-21 8.4038e-28
10294 344 0.0015 -0.470773 -1.87669 0 -2.42773e-12 2.39415e-12 0 0 7.01484e-27
10293 344 0.0015 -0.467948 -1.87759 0 -2.19103e-12 -2.80942e-13 0 0 3.74797e-27
6077 203 0.0015 -0.416475 -1.87683 0 6.11442e-12 -4.38039e-12 0 0 1.8277e-26
6076 203 0.0015 -0.414658 -1.87769 0 -3.6531e-12 8.03331e-12 0 0 1.69987e-26
6034 202 0.0015 -0.327828 -1.87791 0 -4.11383e-13 6.37618e-13 0 5.48788e-21 1.75045e-27
7992 267 0.0015 -0.22046 -1.87668 0 8.50604e-13 -3.10585e-12 0 2.00918e-20 1.24753e-27
7991 267 0.0015 -0.218134 -1.87756 0 6.01432e-13 2.97688e-12 0 3.01377e-20 9.21979e-28
10267 343 0.0015 0.42201 -1.87716 0 7.18884e-13 2.76344e-12 0 2.48474e-20 4.74796e-27
1479 50 0.0015 0.574675 -1.87722 0 -1.1893e-12 -1.36413e-12 0 0 1.68822e-27
3532 118 0.0015 0.658275 -1.8771 0 2.5463e-12 2.7252e-12 0 1.57149e-20 7.53497e-27
2648 89 0.0015 -0.596958 -1.87493 0 3.60015e-13 -1.11083e-12 0 0 7.51399e-28
10296 344 0.0015 -0.476421 -1.87487 0 -1.73799e-12 3.02746e-12 0 0 6.18651e-27
10295 344 0.0015 -0.473597 -1.87578 0 4.82594e-12 -3.45209e-12 0 0 1.31679e-26
6080 203 0.0015 -0.421925 -1.87425 0 4.98807e-12 9.72466e-13 0 0 9.82359e-27
6079 203 0.0015 -0.420108 -1.87511 0 -1.13291e-11 -2.00967e-12 0 0 2.48126e-26
6078 203 0.0015 -0.418291 -1.87597 0 5.02016e-12 3.31858e-12 0 0 1.73843e-26
7995 267 0.0015 -0.227437 -1.87404 0 1.79065e-12 1.25862e-12 0 0 7.28871e-28
7994 267 0.0015 -0.225111 -1.87492 0 -2.32106e-12 -1.68471e-12 0 0 9.20043e-28
7993 267 0.0015 -0.222785 -1.8758 0 5.7811e-13 2.36633e-12 0 1.00459e-20 7.49612e-28
10330 345 0.0015 -0.0666107 -1.87531 0 4.79303e-13 -1.30992e-12 0 0 8.44291e-28
6003 201 0.0015 0.496967 -1.87498 0 -1.14609e-12 -3.02494e-12 0 0 1.23238e-26
1480 50 0.0015 0.576901 -1.87431 0 1.40936e-12 7.93109e-13 0 0 1.28e-27
3531 118 0.0015 0.660812 -1.87519 0 1.34889e-12 -1.52119e-12 0 0 1.44697e-26
2649 89 0.0015 -0.600679 -1.87207 0 7.01243e-13 1.73472e-13 0 0 7.01472e-28
10299 344 0.0015 -0.484893 -1.87215 0 4.92449e-12 -2.67363e-12 0 1.68424e-20 1.3124e-26
10298 344 0.0015 -0.482069 -1.87306 0 -1.23288e-12 3.04864e-12 0 0 3.75107e-27
10297 344 0.0015 -0.479245 -1.87396 0 -1.04666e-12 -2.66259e-12 0 0 2.03686e-29
6082 203 0.0015 -0.425558 -1.87252 0 -3.03529e-12 4.59756e-12 0 0 6.20787e-27
6081 203 0.0015 -0.423741 -1.87338 0 1.52362e-12 -2.67768e-12 0 0 3.28077e-27
7997 267 0.0015 -0.232089 -1.87228 0 4.64656e-14 -8.59919e-13 0 0 4.47001e-29
7996 267 0.0015 -0.229763 -1.87316 0 -5.66187e-13 -2.30337e-13 0 0 6.93809e-29
10331 345 0.0015 -0.0672875 -1.8722 0 -7.71856e-13 2.16167e-12 0 0 2.68117e-27
1956 66 0.0015 0.0132378 -1.87349 0 3.08634e-13 -3.04455e-12 0 0 8.25078e-27
8045 269 0.0015 0.152704 -1.87369 0 -5.36675e-14 6.06319e-13 0 3.6872e-21 3.57071e-27
10202 341 0.0015 0.289307 -1.87202 0 -2.65458e-13 1.93653e-12 0 3.6872e-21 3.59672e-27
4531 152 0.0015 0.366216 -1.8733 0 -2.90651e-14 2.20078e-13 0 0 1.19342e-28
10268 343 0.0015 0.422731 -1.8732 0 -7.47333e-13 -3.56667e-12 0 3.72711e-20 7.42775e-27
3530 118 0.0015 0.66335 -1.87327 0 -7.30583e-12 -2.77766e-12 0 0 2.60277e-26
10301 344 0.0015 -0.490541 -1.87033 0 2.7658e-13 1.07624e-12 0 3.36849e-20 6.47342e-27
10300 344 0.0015 -0.487717 -1.87124 0 -5.29159e-12 9.27151e-13 0 3.36849e-20 1.25026e-26
6084 203 0.0015 -0.429191 -1.8708 0 1.8482e-13 3.55305e-12 0 0 7.23605e-28
6083 203 0.0015 -0.427374 -1.87166 0 1.81096e-12 -4.12257e-12 0 0 3.62331e-27
6035 202 0.0015 -0.332631 -1.87017 0 3.08786e-13 -4.43735e-13 0 5.48788e-21 9.54037e-28
7999 267 0.0015 -0.23674 -1.87052 0 -1.58651e-14 1.70364e-12 0 0 7.03014e-28
7998 267 0.0015 -0.234415 -1.8714 0 7.79975e-13 -2.67741e-13 0 0 6.37052e-28
1481 50 0.0015 0.579128 -1.8714 0 -5.4054e-13 6.12702e-13 0 0 6.19237e-28
3529 118 0.0015 0.665887 -1.87136 0 3.97678e-12 1.22187e-12 0 0 1.87654e-26
2650 89 0.0015 -0.6044 -1.86922 0 6.60563e-13 -5.01514e-13 0 5.32605e-21 3.64347e-27
10303 344 0.0015 -0.49619 -1.86852 0 2.97092e-12 -2.67924e-12 0 0 1.03321e-26
10302 344 0.0015 -0.493366 -1.86943 0 1.91798e-12 -2.61221e-13 0 1.68424e-20 3.35409e-27
6087 203 0.0015 -0.434641 -1.86821 0 -3.69187e-12 -6.82073e-12 0 0 1.58657e-27
6085 203 0.0015 -0.431008 -1.86994 0 -1.05055e-12 -4.62192e-12 0 0 3.79889e-28
6086 203 0.0015 -0.432824 -1.86908 0 1.24974e-12 6.72989e-12 0 0 8.69804e-28
8001 267 0.0015 -0.241392 -1.86876 0 -2.4359e-13 5.48938e-14 0 0 2.17043e-27
8000 267 0.0015 -0.239066 -1.86964 0 -1.78051e-12 -5.86071e-13 0 0 9.49427e-28
8012 268 0.0015 -0.171924 -1.86923 0 -4.07344e-13 -1.1354e-12 0 0 3.7126e-27
10332 345 0.0015 -0.0679644 -1.86909 0 1.31276e-13 8.73834e-13 0 1.57149e-20 7.5284e-27
1957 66 0.0015 0.0127576 -1.86871 0 -3.72966e-13 3.93521e-12 0 0 1.0894e-26
10269 343 0.0015 0.423451 -1.86924 0 3.8392e-13 2.33575e-12 0 2.48474e-20 4.29472e-27
1482 50 0.0015 0.581354 -1.86848 0 -1.60187e-12 -3.09998e-12 0 0 8.4414e-27
3528 118 0.0015 0.668424 -1.86944 0 3.31514e-12 3.53297e-12 0 0 1.53766e-26
2651 89 0.0015 -0.608121 -1.86636 0 -2.532e-12 1.3074e-12 0 5.32605e-21 5.16145e-27
10305 344 0.0015 -0.501838 -1.8667 0 4.61887e-12 -1.97906e-12 0 0 1.03706e-26
10304 344 0.0015 -0.499014 -1.86761 0 -5.55482e-12 3.07807e-12 0 0 1.62879e-26
6089 203 0.0015 -0.438274 -1.86649 0 -5.22932e-12 2.28419e-12 0 0 1.14424e-26
6088 203 0.0015 -0.436457 -1.86735 0 7.15124e-12 1.81172e-12 0 0 1.14126e-26
8004 267 0.0015 -0.248369 -1.86612 0 1.02569e-13 -4.43455e-12 0 0 1.02177e-27
8003 267 0.0015 -0.246044 -1.867 0 -1.91962e-12 4.02159e-12 0 0 4.01025e-27
8002 267 0.0015 -0.243718 -1.86788 0 3.00319e-12 -2.06714e-12 0 0 4.5486e-27
8046 269 0.0015 0.152008 -1.86695 0 -2.73862e-13 2.62706e-12 0 3.6872e-21 8.40717e-27
6004 201 0.0015 0.499982 -1.86721 0 1.1046e-12 2.79747e-12 0 0 1.09689e-26
3527 118 0.0015 0.670962 -1.86752 0 -7.17778e-12 -5.60407e-12 0 0 3.69348e-26
10307 344 0.0015 -0.507486 -1.86489 0 1.79721e-13 -1.49068e-12 0 1.68424e-20 2.81698e-28
10306 344 0.0015 -0.504662 -1.8658 0 -2.5144e-12 1.63872e-12 0 1.68424e-20 4.68511e-27
6090 203 0.0015 -0.440091 -1.86563 0 9.718e-13 -1.21556e-12 0 0 1.09318e-27
8006 267 0.0015 -0.253021 -1.86436 0 9.27279e-13 5.54422e-13 0 2.00918e-20 1.73425e-28
8005 267 0.0015 -0.250695 -1.86524 0 1.43119e-13 2.74653e-12 0 1.00459e-20 2.95939e-28
10333 345 0.0015 -0.0686412 -1.86599 0 2.64112e-13 -2.40285e-12 0 3.14298e-20 5.24045e-27
10203 341 0.0015 0.288506 -1.8653 0 2.79868e-13 -1.9687e-12 0 3.6872e-21 3.7191e-27
4532 152 0.0015 0.364868 -1.86469 0 5.51827e-15 -1.01667e-13 0 5.72705e-21 1.54601e-28
10270 343 0.0015 0.424172 -1.86529 0 5.22653e-14 -1.63216e-13 0 1.24237e-20 3.44318e-28
1483 50 0.0015 0.58358 -1.86557 0 1.78259e-13 8.80378e-13 0 0 1.21289e-26
3526 118 0.0015 0.673499 -1.86561 0 6.23327e-12 3.93342e-12 0 0 2.68572e-26
2652 89 0.0015 -0.611842 -1.86351 0 1.23965e-12 -2.65783e-13 0 5.32605e-21 2.16772e-27
10310 344 0.0015 -0.515959 -1.86217 0 -1.89413e-12 -6.9729e-13 0 0 5.87169e-27
10309 344 0.0015 -0.513134 -1.86307 0 4.41472e-12 -1.49131e-12 0 0 8.99575e-27
10308 344 0.0015 -0.51031 -1.86398 0 -1.77364e-12 1.65986e-12 0 1.68424e-20 3.81852e-27
6036 202 0.0015 -0.337434 -1.86244 0 -8.28117e-13 1.24385e-12 0 2.74394e-21 2.9149e-27
8008 267 0.0015 -0.257673 -1.8626 0 5.7616e-13 2.62117e-12 0 1.00459e-20 2.10297e-28
8007 267 0.0015 -0.255347 -1.86348 0 -1.16643e-12 -3.31965e-12 0 2.00918e-20 3.35322e-28
10334 345 0.0015 -0.0693181 -1.86288 0 5.87403e-13 -1.52749e-12 0 3.14298e-20 2.22148e-27
1958 66 0.0015 0.0122775 -1.86393 0 8.8754e-14 -1.38299e-12 0 0 3.26956e-27
1484 50 0.0015 0.585807 -1.86266 0 3.57647e-12 3.83582e-12 0 0 1.46192e-26
3525 118 0.0015 0.676036 -1.86369 0 -6.23327e-12 -3.93342e-12 0 0 2.68572e-26
2653 89 0.0015 -0.615563 -1.86065 0 -1.38385e-13 -1.59016e-13 0 0 5.39929e-29
10312 344 0.0015 -0.521607 -1.86035 0 3.79382e-12 -4.59454e-12 0 0 1.04671e-26
10311 344 0.0015 -0.518783 -1.86126 0 -2.13114e-12 3.77957e-12 0 0 4.93201e-27
8010 267 0.0015 -0.262324 -1.86085 0 2.61944e-12 -1.3854e-12 0 0 5.97092e-27
8009 267 0.0015 -0.259998 -1.86172 0 -2.95297e-12 9.11318e-13 0 0 5.98529e-27
8047 269 0.0015 0.151313 -1.86021 0 5.64441e-13 -5.45547e-12 0 7.37441e-21 3.0266e-26
10271 343 0.0015 0.424893 -1.86133 0 -3.62883e-13 -1.32557e-12 0 0 1.36103e-27
3524 118 0.0015 0.678573 -1.86178 0 7.17778e-12 5.60407e-12 0 0 3.69348e-26
10314 344 0.0015 -0.527255 -1.85854 0 4.21878e-12 -1.06838e-12 0 0 8.92824e-27
10313 344 0.0015 -0.524431 -1.85944 0 -5.0688e-12 3.04901e-12 0 0 1.36897e-26
10335 345 0.0015 -0.0699949 -1.85978 0 4.34701e-14 -1.47638e-12 0 1.57149e-20 1.03685e-26
1959 66 0.0015 0.0117974 -1.85915 0 1.74576e-13 -1.05224e-12 0 0 1.10365e-27
4771 160 0.0015 0.0785585 -1.85825 0 2.66819e-14 -1.00025e-12 0 0 2.55896e-27
10204 341 0.0015 0.287705 -1.85857 0 -4.57873e-13 3.51878e-12 0 0 1.42008e-26
6005 201 0.0015 0.502997 -1.85945 0 -2.96198e-13 -7.10433e-13 0 5.99535e-21 3.57851e-27
1485 50 0.0015 0.588033 -1.85975 0 -3.12395e-12 -2.77214e-12 0 0 1.13283e-26
3523 118 0.0015 0.681111 -1.85986 0 -3.31514e-12 -3.53297e-12 0 0 1.53766e-26
2654 89 0.0015 -0.619284 -1.8578 0 6.83826e-15 -1.25317e-13 0 0 3.55549e-29
10316 344 0.0015 -0.532903 -1.85672 0 8.40036e-13 2.84904e-13 0 0 5.48642e-28
10315 344 0.0015 -0.530079 -1.85763 0 -2.27657e-12 -7.5825e-14 0 0 2.00735e-27
8013 268 0.0015 -0.167482 -1.85688 0 8.90105e-14 2.37e-13 0 0 1.83446e-28
10336 345 0.0015 -0.0706718 -1.85667 0 -5.97365e-13 3.20194e-12 0 0 8.18994e-27
4533 152 0.0015 0.36352 -1.85607 0 3.41371e-14 -1.77076e-13 0 1.14541e-20 4.38658e-29
10272 343 0.0015 0.425614 -1.85738 0 5.63731e-13 2.21081e-12 0 0 2.90717e-27
1486 50 0.0015 0.59026 -1.85684 0 3.12395e-12 2.77214e-12 0 0 1.13283e-26
3522 118 0.0015 0.683648 -1.85795 0 -3.97678e-12 -1.22187e-12 0 0 1.87654e-26
3521 118 0.0015 0.686185 -1.85603 0 7.30583e-12 2.77766e-12 0 0 2.60277e-26
2655 89 0.0015 -0.623004 -1.85494 0 -4.47637e-13 6.19327e-13 0 0 8.41471e-28
10318 344 0.0015 -0.538552 -1.85491 0 1.05304e-13 -1.01218e-12 0 0 4.28892e-28
10317 344 0.0015 -0.535727 -1.85581 0 4.24016e-13 1.43586e-13 0 0 6.44989e-29
6037 202 0.0015 -0.342237 -1.85471 0 5.25939e-13 -7.40089e-13 0 0 1.97468e-27
1960 66 0.0015 0.0113172 -1.85437 0 -6.65709e-14 8.8866e-14 0 5.20104e-21 1.91457e-27
3520 118 0.0015 0.688722 -1.85412 0 -1.34889e-12 1.52119e-12 0 0 1.44697e-26
2656 89 0.0015 -0.626725 -1.85209 0 1.35485e-12 -1.27048e-12 0 0 2.26506e-27
10320 344 0.0015 -0.5442 -1.85309 0 1.44822e-12 -8.42376e-13 0 0 2.20667e-27
10319 344 0.0015 -0.541376 -1.854 0 -1.91348e-12 1.59154e-12 0 0 2.57889e-27
10337 345 0.0015 -0.0713486 -1.85356 0 -7.23221e-13 4.07279e-12 0 0 1.67644e-26
8048 269 0.0015 0.150617 -1.85348 0 -5.63312e-13 5.37671e-12 0 3.6872e-21 2.96809e-26
10273 343 0.0015 0.426335 -1.85342 0 -5.44418e-13 -2.31814e-12 0 0 3.1605e-27
1487 50 0.0015 0.592486 -1.85392 0 -3.57647e-12 -3.83582e-12 0 0 1.46192e-26
3519 118 0.0015 0.69126 -1.8522 0 -2.5463e-12 -2.7252e-12 0 1.57149e-20 7.53497e-27
10338 345 0.0015 -0.0720254 -1.85046 0 7.51551e-13 -4.69439e-12 0 0 1.68603e-26
10205 341 0.0015 0.286904 -1.85184 0 6.06129e-13 -4.82421e-12 0 0 2.23109e-26
6006 201 0.0015 0.506013 -1.85168 0 2.23924e-13 5.72486e-13 0 1.19907e-20 2.79193e-27
1488 50 0.0015 0.594712 -1.85101 0 -1.78259e-13 -8.80378e-13 0 0 1.21289e-26
3518 118 0.0015 0.693797 -1.85028 0 -2.21924e-13 -4.90578e-13 0 1.57149e-20 2.35145e-27
2657 89 0.0015 -0.630446 -1.84923 0 8.72564e-13 -7.35142e-13 0 5.32605e-21 7.66301e-27
1961 66 0.0015 0.0108371 -1.84959 0 -3.27947e-13 3.44528e-12 0 1.04021e-20 1.03083e-26
4772 160 0.0015 0.0782973 -1.84905 0 -3.52904e-14 1.44984e-12 0 0 3.07572e-27
10274 343 0.0015 0.427056 -1.84946 0 3.17661e-13 1.1803e-12 0 0 1.51085e-27
1489 50 0.0015 0.596939 -1.8481 0 1.60187e-12 3.09998e-12 0 0 8.4414e-27
3517 118 0.0015 0.696334 -1.84837 0 2.72761e-12 1.93536e-12 0 1.57149e-20 5.09965e-27
2658 89 0.0015 -0.634167 -1.84638 0 -3.47761e-12 2.99064e-12 0 5.32605e-21 1.3689e-26
6038 202 0.0015 -0.34704 -1.84697 0 -4.01436e-13 5.62639e-13 0 2.74394e-21 1.12618e-27
10339 345 0.0015 -0.0727023 -1.84735 0 9.95819e-13 -3.59646e-12 0 0 1.51369e-26
8049 269 0.0015 0.149922 -1.84674 0 1.12028e-13 -9.18727e-13 0 3.6872e-21 9.04102e-27
6541 219 0.0015 0.213251 -1.84656 0 -1.02482e-14 7.35438e-14 0 0 1.08491e-29
4534 152 0.0015 0.362172 -1.84745 0 1.88972e-13 -1.25677e-12 0 1.71811e-20 4.298e-27
3516 118 0.0015 0.698871 -1.84645 0 -2.61061e-12 -1.09514e-12 0 0 3.97079e-27
8014 268 0.0015 -0.163039 -1.84452 0 1.51488e-13 4.37048e-13 0 0 8.92023e-28
10340 345 0.0015 -0.0733791 -1.84424 0 -1.35728e-12 5.98676e-12 0 1.57149e-20 1.85927e-26
1962 66 0.0015 0.010357 -1.84481 0 4.75421e-13 -4.59269e-12 0 1.04021e-20 1.45554e-26
10206 341 0.0015 0.286103 -1.84511 0 -4.00449e-13 3.06217e-12 0 3.6872e-21 1.11068e-26
10275 343 0.0015 0.427777 -1.84551 0 4.07968e-13 3.08116e-12 0 0 1.1164e-26
1490 50 0.0015 0.599165 -1.84519 0 5.4054e-13 -6.12702e-13 0 0 6.19237e-28
3515 118 0.0015 0.701409 -1.84454 0 1.85138e-12 8.291e-13 0 0 1.81344e-27
2659 89 0.0015 -0.637888 -1.84352 0 1.62102e-12 -1.48792e-12 0 5.32605e-21 7.50805e-27
6007 201 0.0015 0.509028 -1.84391 0 -1.05738e-12 -2.72256e-12 0 1.7986e-20 1.07683e-26
1491 50 0.0015 0.601391 -1.84228 0 -1.40936e-12 -7.93109e-13 0 0 1.28e-27
3514 118 0.0015 0.703946 -1.84262 0 -5.19422e-13 -1.12117e-12 0 0 1.30806e-27
2660 89 0.0015 -0.641609 -1.84066 0 7.74553e-13 -6.90619e-13 0 0 9.59645e-28
10341 345 0.0015 -0.074056 -1.84114 0 1.33049e-13 -9.3313e-13 0 1.57149e-20 4.61841e-27
1963 66 0.0015 0.00987681 -1.84004 0 -4.016e-13 3.88677e-12 0 5.20104e-21 1.01849e-26
10276 343 0.0015 0.428498 -1.84155 0 -4.07968e-13 -3.08116e-12 0 0 1.1164e-26
3513 118 0.0015 0.706483 -1.84071 0 -1.22442e-12 1.67531e-13 0 1.57149e-20 5.16699e-28
6039 202 0.0015 -0.351842 -1.83924 0 4.85942e-13 -7.29801e-13 0 2.74394e-21 1.23575e-27
10342 345 0.0015 -0.0747328 -1.83803 0 4.02981e-13 -1.27978e-12 0 1.57149e-20 1.08399e-27
4773 160 0.0015 0.0780361 -1.83985 0 -7.37375e-15 -1.41244e-14 0 2.71488e-21 1.00204e-27
8050 269 0.0015 0.149226 -1.84 0 9.81811e-14 -1.12472e-12 0 0 1.96831e-27
6542 219 0.0015 0.21269 -1.83947 0 4.8765e-14 -3.87522e-13 0 3.51396e-21 2.08077e-28
10207 341 0.0015 0.285302 -1.83839 0 -3.03896e-14 7.09328e-13 0 3.6872e-21 5.40591e-27
4535 152 0.0015 0.360823 -1.83883 0 -2.87564e-13 1.94926e-12 0 1.14541e-20 5.28138e-27
1492 50 0.0015 0.603618 -1.83936 0 1.1893e-12 1.36413e-12 0 0 1.68822e-27
3512 118 0.0015 0.70902 -1.83879 0 1.58724e-12 9.71952e-13 0 1.57149e-20 1.5667e-27
2661 89 0.0015 -0.64533 -1.83781 0 -3.0313e-13 6.44165e-13 0 0 9.6043e-28
10277 343 0.0015 0.429219 -1.8376 0 -3.17661e-13 -1.1803e-12 0 0 1.51085e-27
6008 201 0.0015 0.512043 -1.83614 0 1.05618e-12 2.6768e-12 0 1.19907e-20 1.05691e-26
1493 50 0.0015 0.605844 -1.83645 0 -1.68061e-14 -9.30214e-13 0 0 6.31211e-28
3511 118 0.0015 0.711558 -1.83688 0 -8.14843e-13 -7.41465e-13 0 1.57149e-20 1.06291e-27
2662 89 0.0015 -0.649051 -1.83495 0 3.27082e-13 -5.88328e-13 0 5.32605e-21 9.28149e-28
10343 345 0.0015 -0.0754097 -1.83493 0 8.03195e-13 -4.85514e-12 0 0 2.3699e-26
1964 66 0.0015 0.00939668 -1.83526 0 1.55551e-13 -1.77143e-12 0 0 5.1285e-27
2663 89 0.0015 -0.652772 -1.8321 0 -1.21093e-12 9.6892e-13 0 5.32605e-21 1.57122e-27
10171 340 0.0015 -0.234195 -1.83312 0 2.65066e-13 -3.85389e-13 0 0 4.75043e-28
8015 268 0.0015 -0.158597 -1.83216 0 -4.11437e-13 -1.14593e-12 0 0 2.80034e-27
8051 269 0.0015 0.14853 -1.83326 0 -2.0555e-14 3.63916e-13 0 0 1.43038e-28
6543 219 0.0015 0.212128 -1.83239 0 -1.94209e-13 2.09894e-12 0 1.05419e-20 6.53613e-27
10278 343 0.0015 0.429939 -1.83364 0 5.44418e-13 2.31814e-12 0 0 3.1605e-27
1494 50 0.0015 0.60807 -1.83354 0 -1.04765e-12 8.81604e-14 0 0 2.86349e-28
6040 202 0.0015 -0.356645 -1.83151 0 -5.06383e-14 3.82004e-14 0 2.74394e-21 1.67954e-28
10344 345 0.0015 -0.0760865 -1.83182 0 -1.44188e-12 8.48405e-12 0 0 3.39848e-26
1965 66 0.0015 0.00891654 -1.83048 0 1.67878e-13 -1.24927e-12 0 0 1.6115e-27
4774 160 0.0015 0.0777749 -1.83066 0 2.07994e-14 -5.6824e-13 0 2.71488e-21 5.30394e-28
10208 341 0.0015 0.284501 -1.83166 0 1.35305e-13 -1.69234e-12 0 1.47488e-20 4.30179e-27
4536 152 0.0015 0.359475 -1.83021 0 -5.24385e-14 1.91788e-13 0 5.72705e-21 2.69123e-27
1495 50 0.0015 0.610297 -1.83063 0 1.26252e-12 9.53619e-13 0 0 1.29377e-27
2664 89 0.0015 -0.656493 -1.82924 0 -1.34435e-13 9.32766e-14 0 5.32605e-21 1.73847e-27
10345 345 0.0015 -0.0767633 -1.82871 0 -5.40845e-13 6.57817e-13 0 1.57149e-20 2.57788e-26
10279 343 0.0015 0.43066 -1.82968 0 -5.63731e-13 -2.21081e-12 0 0 2.90717e-27
6009 201 0.0015 0.515058 -1.82837 0 -8.09926e-13 -2.09028e-12 0 5.99535e-21 5.9113e-27
2665 89 0.0015 -0.660213 -1.82639 0 1.93981e-12 -1.3538e-12 0 0 3.85242e-27
10172 340 0.0015 -0.238704 -1.82673 0 1.35162e-13 -1.51975e-13 0 0 1.44933e-27
8052 269 0.0015 0.147835 -1.82652 0 1.20558e-13 -1.38212e-12 0 0 2.54541e-27
1496 50 0.0015 0.612523 -1.82772 0 6.7188e-13 -7.31251e-14 0 0 2.85186e-27
10346 345 0.0015 -0.0774402 -1.82561 0 2.00175e-12 -8.04403e-12 0 1.57149e-20 3.03168e-26
1966 66 0.0015 0.0084364 -1.8257 0 -2.05183e-13 1.84436e-12 0 5.20104e-21 2.36294e-27
6544 219 0.0015 0.211567 -1.8253 0 2.36604e-13 -2.7521e-12 0 1.40558e-20 8.19882e-27
10209 341 0.0015 0.2837 -1.82493 0 2.53274e-13 -1.80013e-12 0 1.47488e-20 7.71384e-27
10280 343 0.0015 0.431381 -1.82573 0 3.62883e-13 1.32557e-12 0 0 1.36103e-27
1497 50 0.0015 0.614749 -1.8248 0 -1.60466e-12 6.85131e-14 0 0 2.0271e-27
2666 89 0.0015 -0.663934 -1.82353 0 -1.93811e-12 1.32704e-12 0 5.32605e-21 3.81171e-27
6041 202 0.0015 -0.361448 -1.82377 0 2.5272e-13 -3.96803e-13 0 0 1.03117e-27
10347 345 0.0015 -0.078117 -1.8225 0 -1.03243e-12 4.69634e-12 0 3.14298e-20 1.53198e-26
2667 89 0.0015 -0.667655 -1.82068 0 2.22224e-13 -1.14255e-14 0 1.06521e-20 1.62826e-27
10173 340 0.0015 -0.243212 -1.82034 0 -1.07129e-12 1.46386e-12 0 0 3.8159e-27
1967 66 0.0015 0.00795626 -1.82092 0 1.69757e-13 -1.8984e-12 0 5.20104e-21 2.51172e-27
4775 160 0.0015 0.0775136 -1.82146 0 -1.1434e-14 3.90438e-13 0 5.42976e-21 2.14907e-28
4537 152 0.0015 0.358127 -1.82159 0 2.70311e-13 -1.62645e-12 0 0 3.29411e-27
10281 343 0.0015 0.432102 -1.82177 0 -5.22653e-14 1.63216e-13 0 1.24237e-20 3.44318e-28
6010 201 0.0015 0.518074 -1.8206 0 9.08768e-13 2.4627e-12 0 0 7.98364e-27
1498 50 0.0015 0.616976 -1.82189 0 -2.68274e-13 -2.22966e-12 0 0 2.50277e-27
8016 268 0.0015 -0.154154 -1.81981 0 7.59685e-14 1.97973e-13 0 0 2.86793e-27
10348 345 0.0015 -0.0787939 -1.81939 0 -3.13623e-13 1.20426e-13 0 1.57149e-20 1.13254e-27
8053 269 0.0015 0.147139 -1.81978 0 -6.14707e-14 8.1286e-13 0 3.6872e-21 2.6195e-27
6545 219 0.0015 0.211005 -1.81821 0 1.57032e-14 -2.00784e-13 0 1.05419e-20 4.57185e-27
10210 341 0.0015 0.282899 -1.8182 0 -3.32534e-13 2.92903e-12 0 1.47488e-20 9.27811e-27
1499 50 0.0015 0.619202 -1.81898 0 6.13716e-13 1.45634e-12 0 0 2.31913e-27
2668 89 0.0015 -0.671376 -1.81782 0 3.13854e-13 -3.74556e-13 0 1.59781e-20 6.87762e-28
6042 202 0.0015 -0.366251 -1.81604 0 -7.17576e-13 1.21157e-12 0 0 2.54103e-27
10349 345 0.0015 -0.0794707 -1.81629 0 7.26833e-13 -1.73937e-12 0 1.57149e-20 1.52088e-27
1968 66 0.0015 0.00747613 -1.81614 0 -8.49438e-14 1.33292e-12 0 5.20104e-21 1.7726e-27
10282 343 0.0015 0.432823 -1.81781 0 -3.8392e-13 -2.33575e-12 0 2.48474e-20 4.29472e-27
1500 50 0.0015 0.621428 -1.81607 0 -1.76741e-15 -2.46513e-14 0 0 4.34496e-31
2669 89 0.0015 -0.675097 -1.81497 0 -5.24499e-13 4.719e-13 0 1.06521e-20 1.16358e-27
5941 199 0.0015 0.740778 -1.81551 0 1.36601e-13 5.01186e-13 0 0 7.19535e-28
2670 89 0.0015 -0.678818 -1.81211 0 7.20944e-13 -5.71565e-13 0 5.32605e-21 1.10249e-27
10174 340 0.0015 -0.24772 -1.81396 0 9.65605e-13 -1.33704e-12 0 0 3.39599e-27
10350 345 0.0015 -0.0801475 -1.81318 0 -3.30422e-13 9.17271e-13 0 0 8.25072e-28
4776 160 0.0015 0.0772524 -1.81226 0 3.78722e-14 -1.38815e-12 0 1.08595e-20 3.43869e-27
8054 269 0.0015 0.146443 -1.81304 0 -7.40025e-14 6.63055e-13 0 7.37441e-21 4.19446e-28
4538 152 0.0015 0.356779 -1.81297 0 -2.89899e-13 1.83206e-12 0 0 4.23385e-27
10283 343 0.0015 0.433544 -1.81386 0 7.47333e-13 3.56667e-12 0 3.72711e-20 7.42775e-27
6011 201 0.0015 0.521089 -1.81283 0 -6.30125e-13 -1.78224e-12 0 5.99535e-21 4.93177e-27
1969 66 0.0015 0.00699599 -1.81136 0 -2.36061e-14 -2.11316e-13 0 5.20104e-21 5.31555e-29
6546 219 0.0015 0.210443 -1.81113 0 -1.30721e-13 1.50649e-12 0 3.51396e-21 2.94046e-27
10211 341 0.0015 0.282098 -1.81148 0 2.10172e-13 -2.17078e-12 0 3.6872e-21 4.56657e-27
6043 202 0.0015 -0.371054 -1.8083 0 6.07004e-13 -1.05938e-12 0 0 2.04112e-27
10284 343 0.0015 0.434265 -1.8099 0 -7.18884e-13 -2.76344e-12 0 2.48474e-20 4.74796e-27
10175 340 0.0015 -0.252228 -1.80757 0 -8.81925e-13 1.23234e-12 0 0 2.7701e-27
8017 268 0.0015 -0.149712 -1.80745 0 5.58853e-13 1.57749e-12 0 0 5.87715e-27
1970 66 0.0015 0.00651585 -1.80658 0 -1.81377e-13 2.03396e-12 0 5.20104e-21 5.5166e-27
8055 269 0.0015 0.145748 -1.8063 0 -2.64983e-14 9.66517e-14 0 1.10616e-20 5.99502e-28
5942 199 0.0015 0.743061 -1.80618 0 -4.95999e-15 1.08632e-13 0 0 1.75729e-27
6547 219 0.0015 0.209882 -1.80404 0 -8.91275e-14 1.27305e-12 0 3.51396e-21 5.38727e-27
10212 341 0.0015 0.281297 -1.80475 0 -1.23247e-13 1.42735e-12 0 0 2.99286e-27
4539 152 0.0015 0.35543 -1.80435 0 3.02906e-13 -1.95048e-12 0 0 4.73611e-27