ITEM: TIMESTEP
66220
ITEM: NUMBER OF ATOMS
10500
ITEM: BOX BOUNDS pp pp pp
-1.0249999999999999e+00 1.0249999999999999e+00
-2.0000000000000000e+00 2.0000000000000000e+00
-5.0000000000000003e-02 5.0000000000000003e-02
ITEM: ATOMS id type radius x y z fx fy fz c_bendingE c_stretchingE
10321 345 0.0015 -0.0605191 -1.90326 0 1.44008e-12 -6.15134e-12 0 1.57149e-20 3.52384e-26
6031 202 0.0015 -0.31342 -1.90111 0 -1.33066e-12 2.15695e-12 0 0 1.62426e-26
10322 345 0.0015 -0.061196 -1.90016 0 -2.82771e-12 1.21212e-11 0 1.57149e-20 6.84056e-26
8041 269 0.0015 0.155487 -1.90065 0 -1.34696e-13 1.20748e-12 0 3.6872e-21 2.77778e-27
10261 343 0.0015 0.417684 -1.90089 0 4.13852e-13 3.3652e-12 0 0 1.27984e-26
1471 50 0.0015 0.556864 -1.90052 0 -3.0313e-12 -3.02645e-12 0 0 1.83516e-26
10323 345 0.0015 -0.0618728 -1.89705 0 1.12352e-12 -5.64329e-12 0 1.57149e-20 3.32916e-26
1951 66 0.0015 0.0156385 -1.89738 0 -5.05605e-13 5.23638e-12 0 0 3.6922e-26
10262 343 0.0015 0.418405 -1.89694 0 -7.06685e-13 -7.04642e-12 0 0 2.78775e-26
1472 50 0.0015 0.559091 -1.8976 0 6.51065e-12 6.23149e-12 0 0 4.04569e-26
2641 89 0.0015 -0.570912 -1.89491 0 9.52966e-14 -3.0724e-13 0 0 8.98688e-29
1473 50 0.0015 0.561317 -1.89469 0 -4.8442e-12 -4.36379e-12 0 0 2.52217e-26
2642 89 0.0015 -0.574633 -1.89206 0 4.94267e-13 3.64701e-13 0 0 3.33842e-28
6032 202 0.0015 -0.318223 -1.89337 0 1.62691e-12 -2.67086e-12 0 0 1.71315e-26
10324 345 0.0015 -0.0625496 -1.89394 0 1.2385e-12 -3.09011e-12 0 0 7.59034e-27
1952 66 0.0015 0.0151583 -1.8926 0 8.36837e-13 -8.88877e-12 0 0 5.48641e-26
8042 269 0.0015 0.154791 -1.89391 0 2.6607e-13 -2.24213e-12 0 3.6872e-21 4.8237e-27
10263 343 0.0015 0.419126 -1.89298 0 1.08729e-13 4.20768e-12 0 0 1.53418e-26
3540 118 0.0015 0.637977 -1.89243 0 -4.34349e-12 -4.26244e-12 0 0 3.2161e-26
6061 203 0.0015 -0.387409 -1.89062 0 5.17362e-13 2.6814e-12 0 2.48474e-20 2.59739e-28
10325 345 0.0015 -0.0632265 -1.89084 0 -1.5145e-12 3.59242e-12 0 0 8.2213e-27
10231 342 0.0015 0.215 -1.89 0 1.55128e-12 0 0 0 4.61009e-28
10232 342 0.0015 0.21569 -1.89 0 -1.37596e-12 0 0 0 4.66867e-28
10233 342 0.0015 0.216379 -1.89 0 -1.1233e-12 0 0 0 1.78014e-28
10234 342 0.0015 0.217069 -1.89 0 2.17549e-13 0 0 0 2.74424e-28
10235 342 0.0015 0.217759 -1.89 0 3.47722e-12 0 0 0 1.54741e-27
10236 342 0.0015 0.218448 -1.89 0 -3.83965e-12 0 0 0 1.67395e-27
10237 342 0.0015 0.219138 -1.89 0 3.07879e-12 0 0 0 9.8434e-28
10238 342 0.0015 0.219828 -1.89 0 -6.77333e-12 0 0 0 5.14619e-27
10239 342 0.0015 0.220517 -1.89 0 1.1337e-11 0 0 0 1.2609e-26
10240 342 0.0015 0.221207 -1.89 0 -1.24591e-11 0 0 0 1.49101e-26
10241 342 0.0015 0.221897 -1.89 0 1.19525e-11 0 0 0 1.36868e-26
10242 342 0.0015 0.222586 -1.89 0 -1.41624e-11 0 0 0 1.96253e-26
10243 342 0.0015 0.223276 -1.89 0 1.58648e-11 0 0 0 2.41219e-26
10244 342 0.0015 0.223966 -1.89 0 -1.45973e-11 0 0 0 2.04858e-26
10245 342 0.0015 0.224655 -1.89 0 1.39084e-11 0 0 0 1.85344e-26
10246 342 0.0015 0.225345 -1.89 0 -1.39084e-11 0 0 0 1.85344e-26
10247 342 0.0015 0.226034 -1.89 0 1.45973e-11 0 0 0 2.04858e-26
10248 342 0.0015 0.226724 -1.89 0 -1.58648e-11 0 0 0 2.41219e-26
10249 342 0.0015 0.227414 -1.89 0 1.41624e-11 0 0 0 1.96253e-26
10250 342 0.0015 0.228103 -1.89 0 -1.19525e-11 0 0 0 1.36868e-26
10251 342 0.0015 0.228793 -1.89 0 1.24591e-11 0 0 0 1.49101e-26
10252 342 0.0015 0.229483 -1.89 0 -1.1337e-11 0 0 0 1.2609e-26
10253 342 0.0015 0.230172 -1.89 0 6.77333e-12 0 0 0 5.14619e-27
10254 342 0.0015 0.230862 -1.89 0 -3.07879e-12 0 0 0 9.8434e-28
10255 342 0.0015 0.231552 -1.89 0 3.83965e-12 0 0 0 1.67395e-27
10256 342 0.0015 0.232241 -1.89 0 -3.47722e-12 0 0 0 1.54741e-27
10257 342 0.0015 0.232931 -1.89 0 -2.17549e-13 0 0 0 2.74424e-28
10258 342 0.0015 0.233621 -1.89 0 1.1233e-12 0 0 0 1.78014e-28
10259 342 0.0015 0.23431 -1.89 0 1.37596e-12 0 0 0 4.66867e-28
10260 342 0.0015 0.235 -1.89 0 -1.55128e-12 0 0 0 4.61009e-28
6001 201 0.0015 0.490936 -1.89052 0 8.20641e-13 2.09998e-12 0 0 1.17667e-26
1474 50 0.0015 0.563543 -1.89178 0 2.33088e-12 1.80745e-12 0 0 4.35312e-27
3539 118 0.0015 0.640514 -1.89051 0 4.63083e-12 5.94022e-12 0 0 3.35194e-26
2643 89 0.0015 -0.578354 -1.8892 0 -7.16799e-13 -4.20112e-13 0 0 2.62682e-28
6063 203 0.0015 -0.391043 -1.8889 0 5.57338e-12 1.03044e-11 0 2.48474e-20 3.05762e-28
6064 203 0.0015 -0.392859 -1.88804 0 -8.2269e-12 -1.55401e-11 0 0 2.99568e-28
6062 203 0.0015 -0.389226 -1.88976 0 -2.56081e-12 -7.25154e-12 0 2.48474e-20 2.66844e-28
10264 343 0.0015 0.419847 -1.88903 0 8.62099e-13 2.14105e-12 0 0 8.68471e-27
1475 50 0.0015 0.56577 -1.88887 0 -5.51508e-13 3.37328e-13 0 0 2.32764e-27
3538 118 0.0015 0.643052 -1.8886 0 -6.40064e-13 -2.05866e-12 0 0 1.58897e-27
2644 89 0.0015 -0.582074 -1.88635 0 5.35163e-13 2.43276e-13 0 0 2.23313e-28
6066 203 0.0015 -0.396492 -1.88631 0 -1.45991e-13 -2.00339e-11 0 0 2.33368e-26
6065 203 0.0015 -0.394676 -1.88717 0 7.44151e-12 2.1401e-11 0 0 3.46537e-27
7981 267 0.0015 -0.194876 -1.88635 0 -1.32517e-12 1.52756e-12 0 2.00918e-20 2.18811e-27
10326 345 0.0015 -0.0639033 -1.88773 0 1.1713e-12 -2.40898e-12 0 0 3.24277e-27
1953 66 0.0015 0.0146782 -1.88782 0 1.2792e-14 3.32552e-13 0 5.20104e-21 3.28039e-26
8043 269 0.0015 0.154095 -1.88717 0 -3.55862e-14 -9.08983e-14 0 3.6872e-21 4.4465e-27
3537 118 0.0015 0.645589 -1.88668 0 -9.90231e-13 -1.88028e-12 0 1.57149e-20 5.46327e-27
6068 203 0.0015 -0.400126 -1.88459 0 2.1941e-12 -5.94725e-13 0 0 3.54275e-27
6067 203 0.0015 -0.398309 -1.88545 0 -4.574e-12 1.01175e-11 0 0 2.33753e-26
6033 202 0.0015 -0.323025 -1.88564 0 -5.47596e-13 9.46891e-13 0 0 1.52212e-27
7983 267 0.0015 -0.199527 -1.8846 0 5.21068e-12 2.78995e-12 0 2.00918e-20 9.34418e-27
7982 267 0.0015 -0.197202 -1.88548 0 3.82158e-13 -3.41307e-12 0 2.00918e-20 2.22005e-27
10327 345 0.0015 -0.0645802 -1.88463 0 -1.57886e-12 5.27453e-12 0 0 1.53165e-26
10265 343 0.0015 0.420568 -1.88507 0 -1.07115e-12 -3.95994e-12 0 0 1.04337e-26
1476 50 0.0015 0.567996 -1.88596 0 -1.40047e-12 -1.88114e-12 0 0 2.83811e-27
3536 118 0.0015 0.648126 -1.88476 0 4.98036e-12 6.43126e-12 0 1.57149e-20 3.1133e-26
2645 89 0.0015 -0.585795 -1.88349 0 -2.40613e-12 1.80198e-12 0 0 9.07682e-27
6071 203 0.0015 -0.405575 -1.882 0 -4.76235e-12 -3.52332e-12 0 0 1.43647e-26
6070 203 0.0015 -0.403759 -1.88287 0 1.04686e-12 5.52761e-12 0 0 2.1613e-27
6069 203 0.0015 -0.401942 -1.88373 0 -1.48446e-12 -2.62469e-12 0 0 1.7034e-28
7985 267 0.0015 -0.204179 -1.88284 0 -3.5544e-12 3.05988e-12 0 2.00918e-20 1.06636e-26
7984 267 0.0015 -0.201853 -1.88372 0 -4.43656e-12 -2.79628e-12 0 1.00459e-20 9.49277e-27
1954 66 0.0015 0.0141981 -1.88304 0 -2.94496e-13 3.0659e-12 0 5.20104e-21 1.49503e-26
6002 201 0.0015 0.493952 -1.88275 0 -2.3316e-12 -5.94496e-12 0 0 5.12717e-26
1477 50 0.0015 0.570222 -1.88304 0 6.73173e-13 -2.62431e-14 0 0 2.61256e-27
3535 118 0.0015 0.650663 -1.88285 0 -4.94002e-12 -5.63071e-12 0 1.57149e-20 2.91547e-26
2646 89 0.0015 -0.589516 -1.88064 0 2.60796e-12 -2.39361e-12 0 0 9.96674e-27
6073 203 0.0015 -0.409209 -1.88028 0 -6.10003e-12 5.80144e-12 0 0 1.78813e-26
6072 203 0.0015 -0.407392 -1.88114 0 8.43329e-12 -2.81174e-12 0 0 2.18386e-26
7988 267 0.0015 -0.211156 -1.8802 0 2.93246e-12 4.31156e-12 0 1.00459e-20 5.63093e-27
7987 267 0.0015 -0.208831 -1.88108 0 -6.26745e-13 -6.65959e-12 0 1.00459e-20 1.33858e-27
7986 267 0.0015 -0.206505 -1.88196 0 4.33282e-12 1.72544e-12 0 2.00918e-20 1.06251e-26
8011 268 0.0015 -0.176367 -1.88159 0 -3.46224e-13 -9.56212e-13 0 0 3.77219e-27
10328 345 0.0015 -0.065257 -1.88152 0 4.66209e-13 -1.28323e-12 0 0 1.81663e-26
8044 269 0.0015 0.1534 -1.88043 0 -4.853e-13 4.95107e-12 0 0 3.02267e-26
10266 343 0.0015 0.421289 -1.88111 0 8.10312e-13 3.24818e-12 0 0 6.47468e-27
1478 50 0.0015 0.572449 -1.88013 0 1.75238e-12 2.33683e-12 0 0 4.93361e-27
3534 118 0.0015 0.653201 -1.88093 0 1.17461e-12 1.13237e-12 0 1.57149e-20 3.33378e-27
10292 344 0.0015 -0.465124 -1.8785 0 2.71722e-12 -1.547e-12 0 0 3.88096e-27
10291 344 0.0015 -0.4623 -1.87941 0 -1.32617e-12 4.9012e-13 0 0 1.64403e-27
6074 203 0.0015 -0.411025 -1.87942 0 6.32739e-12 -1.27617e-11 0 0 3.8255e-26
6075 203 0.0015 -0.412842 -1.87856 0 1.59205e-12 1.84731e-11 0 0 3.0267e-26
7990 267 0.0015 -0.215808 -1.87844 0 3.37259e-12 -9.68774e-13 0 1.00459e-20 4.23085e-27
7989 267 0.0015 -0.213482 -1.87932 0 -4.55083e-12 -1.26678e-13 0 1.00459e-20 6.37919e-27
10329 345 0.0015 -0.0659339 -1.87841 0 5.31237e-13 -2.72014e-12 0 0 5.42341e-27
1955 66 0.0015 0.0137179 -1.87827 0 -1.62165e-13 1.13582e-12 0 5.20104e-21 1.14229e-27
10201 341 0.0015 0.290108 -1.87875 0 1.24423e-13 -9.44477e-13 0 0 1.70759e-27
3533 118 0.0015 0.655738 -1.87902 0 -9.40363e-13 -3.30759e-13 0 1.57149e-20 1.45863e-27
2647 89 0.0015 -0.593237 -1.87778 0 -1.60153e-12 1.2804e-12 0 0 2.76827e-27
10294 344 0.0015 -0.470773 -1.87669 0 6.45272e-12 -2.43305e-12 0 0 1.96776e-26
10293 344 0.0015 -0.467948 -1.87759 0 -4.17807e-12 2.71194e-12 0 0 1.04631e-26
6077 203 0.0015 -0.416475 -1.87683 0 9.70256e-14 1.32071e-11 0 0 1.70473e-26
6076 203 0.0015 -0.414658 -1.87769 0 -8.52812e-12 -1.61433e-11 0 0 3.89945e-28
6034 202 0.0015 -0.327828 -1.87791 0 1.15742e-12 -1.90016e-12 0 2.74394e-21 8.15278e-27
7992 267 0.0015 -0.22046 -1.87668 0 4.53115e-12 2.37862e-12 0 0 5.57349e-27
7991 267 0.0015 -0.218134 -1.87756 0 -4.60569e-12 7.97535e-13 0 0 7.58888e-27
10267 343 0.0015 0.42201 -1.87716 0 -1.22739e-12 -6.93953e-12 0 0 3.29312e-26
1479 50 0.0015 0.574675 -1.87722 0 -2.85917e-12 -2.3155e-12 0 0 6.60105e-27
3532 118 0.0015 0.658275 -1.8771 0 1.61922e-12 1.15314e-12 0 1.57149e-20 1.85934e-27
2648 89 0.0015 -0.596958 -1.87493 0 1.06633e-12 -7.5814e-14 0 0 1.74963e-27
10296 344 0.0015 -0.476421 -1.87487 0 2.44593e-12 2.27744e-12 0 1.68424e-20 5.24541e-27
10295 344 0.0015 -0.473597 -1.87578 0 -6.37973e-12 1.85038e-13 0 1.68424e-20 1.62076e-26
6080 203 0.0015 -0.421925 -1.87425 0 -9.82156e-12 2.05263e-12 0 0 2.95933e-26
6079 203 0.0015 -0.420108 -1.87511 0 1.58294e-12 5.41115e-12 0 0 1.53071e-26
6078 203 0.0015 -0.418291 -1.87597 0 5.41579e-12 -1.1084e-11 0 0 2.65248e-26
7995 267 0.0015 -0.227437 -1.87404 0 -3.82387e-12 -2.95649e-12 0 0 3.87146e-27
7994 267 0.0015 -0.225111 -1.87492 0 3.44869e-12 7.73907e-12 0 0 8.99448e-29
7993 267 0.0015 -0.222785 -1.8758 0 -3.64652e-12 -6.97142e-12 0 0 3.40795e-28
10330 345 0.0015 -0.0666107 -1.87531 0 1.35182e-12 -5.81936e-12 0 0 3.4983e-26
6003 201 0.0015 0.496967 -1.87498 0 2.14443e-12 5.3751e-12 0 0 4.58502e-26
1480 50 0.0015 0.576901 -1.87431 0 -6.35176e-13 -2.11722e-12 0 0 1.60605e-26
3531 118 0.0015 0.660812 -1.87519 0 -3.21263e-12 -2.71673e-12 0 0 1.10739e-26
2649 89 0.0015 -0.600679 -1.87207 0 2.53797e-12 -2.79975e-12 0 0 1.58226e-26
10299 344 0.0015 -0.484893 -1.87215 0 8.83723e-12 -9.25636e-14 0 1.68424e-20 3.52749e-26
10298 344 0.0015 -0.482069 -1.87306 0 -5.20531e-12 1.92712e-12 0 0 1.29965e-26
10297 344 0.0015 -0.479245 -1.87396 0 3.06557e-12 -3.50007e-12 0 1.68424e-20 9.02591e-27
6082 203 0.0015 -0.425558 -1.87252 0 -2.43614e-12 1.49319e-13 0 0 2.11244e-26
6081 203 0.0015 -0.423741 -1.87338 0 1.07282e-11 -5.04283e-12 0 0 3.96387e-26
7997 267 0.0015 -0.232089 -1.87228 0 -6.28405e-13 3.51234e-12 0 0 4.92446e-27
7996 267 0.0015 -0.229763 -1.87316 0 4.11374e-12 -3.05367e-12 0 0 8.40161e-27
10331 345 0.0015 -0.0672875 -1.8722 0 -1.9149e-12 7.16141e-12 0 0 3.6002e-26
1956 66 0.0015 0.0132378 -1.87349 0 1.234e-13 -9.6902e-13 0 0 1.06403e-27
8045 269 0.0015 0.152704 -1.87369 0 5.01566e-13 -4.81086e-12 0 0 2.96766e-26
10202 341 0.0015 0.289307 -1.87202 0 -1.64984e-13 1.11463e-12 0 0 1.76441e-27
4531 152 0.0015 0.366216 -1.8733 0 2.58876e-13 -1.66427e-12 0 5.72705e-21 6.87421e-27
10268 343 0.0015 0.422731 -1.8732 0 9.62298e-13 7.06401e-12 0 0 3.32721e-26
3530 118 0.0015 0.66335 -1.87327 0 8.02006e-12 6.97511e-12 0 0 5.56132e-26
10301 344 0.0015 -0.490541 -1.87033 0 1.28121e-11 -3.51242e-12 0 1.68424e-20 8.19774e-26
10300 344 0.0015 -0.487717 -1.87124 0 -1.54737e-11 1.33483e-12 0 1.68424e-20 9.79272e-26
6084 203 0.0015 -0.429191 -1.8708 0 1.0304e-11 -5.90319e-12 0 0 4.98515e-26
6083 203 0.0015 -0.427374 -1.87166 0 -9.78262e-12 7.56637e-12 0 0 5.06472e-26
6035 202 0.0015 -0.332631 -1.87017 0 -1.02918e-12 1.68607e-12 0 2.74394e-21 7.67869e-27
7999 267 0.0015 -0.23674 -1.87052 0 1.05589e-12 -2.53726e-12 0 1.00459e-20 1.26244e-27
7998 267 0.0015 -0.234415 -1.8714 0 -1.71853e-12 -2.48353e-13 0 1.00459e-20 7.98259e-28
1481 50 0.0015 0.579128 -1.8714 0 3.70318e-12 4.9352e-12 0 0 2.00187e-26
3529 118 0.0015 0.665887 -1.87136 0 -8.2287e-12 -7.76445e-12 0 0 5.99052e-26
2650 89 0.0015 -0.6044 -1.86922 0 -3.95043e-12 3.2767e-12 0 0 1.93032e-26
10303 344 0.0015 -0.49619 -1.86852 0 -5.20134e-12 -2.99651e-12 0 0 6.78351e-27
10302 344 0.0015 -0.493366 -1.86943 0 -1.29441e-12 3.9565e-12 0 0 1.75491e-26
6087 203 0.0015 -0.434641 -1.86821 0 -5.68317e-13 -1.91384e-12 0 0 8.24418e-27
6085 203 0.0015 -0.431008 -1.86994 0 -3.11714e-12 -3.9443e-12 0 0 6.06675e-27
6086 203 0.0015 -0.432824 -1.86908 0 -9.47063e-13 8.65254e-12 0 0 6.19877e-27
8001 267 0.0015 -0.241392 -1.86876 0 -6.71118e-12 -5.72274e-13 0 0 1.90028e-26
8000 267 0.0015 -0.239066 -1.86964 0 9.17295e-13 2.97074e-12 0 1.00459e-20 1.4094e-27
8012 268 0.0015 -0.171924 -1.86923 0 6.95356e-13 1.9105e-12 0 0 7.53822e-27
10332 345 0.0015 -0.0679644 -1.86909 0 1.15623e-12 -2.82633e-12 0 0 4.2563e-27
1957 66 0.0015 0.0127576 -1.86871 0 6.60426e-13 -6.58266e-12 0 0 5.9962e-26
10269 343 0.0015 0.423451 -1.86924 0 1.32557e-13 -1.75127e-12 0 0 4.96074e-27
1482 50 0.0015 0.581354 -1.86848 0 1.18803e-12 1.85941e-12 0 0 2.92099e-26
3528 118 0.0015 0.668424 -1.86944 0 2.42814e-12 2.64273e-12 0 0 1.51781e-26
2651 89 0.0015 -0.608121 -1.86636 0 1.73426e-12 -1.07873e-12 0 0 3.74501e-27
10305 344 0.0015 -0.501838 -1.8667 0 2.3207e-13 -3.49744e-12 0 0 1.9907e-27
10304 344 0.0015 -0.499014 -1.86761 0 3.41142e-12 2.52722e-12 0 0 4.1488e-27
6089 203 0.0015 -0.438274 -1.86649 0 7.7783e-12 -5.22757e-12 0 0 4.33297e-26
6088 203 0.0015 -0.436457 -1.86735 0 1.36569e-12 -1.98745e-12 0 0 3.78216e-27
8004 267 0.0015 -0.248369 -1.86612 0 2.49523e-12 3.24305e-12 0 2.00918e-20 6.25539e-27
8003 267 0.0015 -0.246044 -1.867 0 -9.52589e-12 -1.8184e-12 0 2.00918e-20 2.66947e-26
8002 267 0.0015 -0.243718 -1.86788 0 1.1525e-11 -4.47187e-14 0 1.00459e-20 4.03241e-26
8046 269 0.0015 0.152008 -1.86695 0 1.80405e-13 -2.09552e-12 0 0 1.98725e-26
6004 201 0.0015 0.499982 -1.86721 0 -3.08355e-13 -5.31068e-13 0 0 8.89234e-27
3527 118 0.0015 0.670962 -1.86752 0 1.83548e-12 2.07351e-12 0 0 4.3322e-27
10307 344 0.0015 -0.507486 -1.86489 0 -1.47072e-12 -3.18024e-12 0 1.68424e-20 1.0135e-26
10306 344 0.0015 -0.504662 -1.8658 0 -2.42085e-12 4.86177e-12 0 1.68424e-20 6.139e-27
6090 203 0.0015 -0.440091 -1.86563 0 -7.34238e-12 5.04274e-12 0 0 4.32047e-26
8006 267 0.0015 -0.253021 -1.86436 0 -3.27376e-12 5.34958e-12 0 0 8.57877e-27
8005 267 0.0015 -0.250695 -1.86524 0 2.25455e-12 -4.37629e-12 0 1.00459e-20 4.81598e-27
10333 345 0.0015 -0.0686412 -1.86599 0 -6.36156e-16 3.61754e-13 0 1.57149e-20 5.23295e-27
10203 341 0.0015 0.288506 -1.8653 0 6.39401e-14 -2.32581e-13 0 0 6.471e-29
4532 152 0.0015 0.364868 -1.86469 0 -3.98695e-13 2.5427e-12 0 5.72705e-21 8.79139e-27
10270 343 0.0015 0.424172 -1.86529 0 -1.30713e-13 1.21362e-12 0 0 2.82388e-27
1483 50 0.0015 0.58358 -1.86557 0 -3.67496e-12 -5.12044e-12 0 0 2.52485e-26
3526 118 0.0015 0.673499 -1.86561 0 -2.94626e-12 -3.52293e-12 0 0 8.85569e-27
2652 89 0.0015 -0.611842 -1.86351 0 -3.21927e-13 2.31108e-14 0 0 2.04446e-28
10310 344 0.0015 -0.515959 -1.86217 0 4.74903e-12 -1.94034e-12 0 0 1.47177e-26
10309 344 0.0015 -0.513134 -1.86307 0 -7.59307e-12 3.27035e-12 0 0 2.7902e-26
10308 344 0.0015 -0.51031 -1.86398 0 6.82368e-12 -1.02584e-12 0 1.68424e-20 1.99649e-26
6036 202 0.0015 -0.337434 -1.86244 0 4.10276e-13 -7.06734e-13 0 2.74394e-21 9.69128e-28
8008 267 0.0015 -0.257673 -1.8626 0 2.61932e-12 1.10273e-12 0 2.00918e-20 9.70353e-27
8007 267 0.0015 -0.255347 -1.86348 0 2.70881e-12 -4.59728e-12 0 1.00459e-20 6.59273e-27
10334 345 0.0015 -0.0693181 -1.86288 0 -2.08767e-12 4.49861e-12 0 3.14298e-20 1.17253e-26
1958 66 0.0015 0.0122775 -1.86393 0 -1.40549e-12 1.38491e-11 0 0 1.29436e-25
1484 50 0.0015 0.585807 -1.86266 0 1.05988e-12 2.84739e-12 0 0 4.32959e-27
3525 118 0.0015 0.676036 -1.86369 0 2.94626e-12 3.52293e-12 0 0 8.85569e-27
2653 89 0.0015 -0.615563 -1.86065 0 1.95332e-13 -4.67234e-13 0 0 4.10466e-28
10312 344 0.0015 -0.521607 -1.86035 0 -8.65169e-13 -8.10672e-13 0 0 1.77178e-27
10311 344 0.0015 -0.518783 -1.86126 0 3.36697e-13 1.57016e-13 0 0 2.20138e-27
8010 267 0.0015 -0.262324 -1.86085 0 4.28085e-12 -1.37339e-12 0 1.00459e-20 1.39243e-26
8009 267 0.0015 -0.259998 -1.86172 0 -7.75365e-12 2.00586e-12 0 2.00918e-20 2.22506e-26
8047 269 0.0015 0.151313 -1.86021 0 -3.04671e-13 3.47646e-12 0 0 1.83152e-26
10271 343 0.0015 0.424893 -1.86133 0 -4.79615e-13 -3.76837e-12 0 1.24237e-20 8.31261e-27
3524 118 0.0015 0.678573 -1.86178 0 -1.83548e-12 -2.07351e-12 0 0 4.3322e-27
10314 344 0.0015 -0.527255 -1.85854 0 3.60098e-12 -1.45505e-12 0 0 7.0994e-27
10313 344 0.0015 -0.524431 -1.85944 0 -1.57928e-12 1.29163e-12 0 0 1.58104e-27
10335 345 0.0015 -0.0699949 -1.85978 0 2.11124e-12 -3.71607e-12 0 3.14298e-20 1.0175e-26
1959 66 0.0015 0.0117974 -1.85915 0 9.85696e-13 -9.19269e-12 0 0 7.49733e-26
4771 160 0.0015 0.0785585 -1.85825 0 4.58535e-14 -1.58907e-12 0 0 6.45933e-27
10204 341 0.0015 0.287705 -1.85857 0 -2.81215e-13 2.14608e-12 0 3.6872e-21 8.30319e-27
6005 201 0.0015 0.502997 -1.85945 0 -9.65425e-13 -2.79803e-12 0 5.99535e-21 1.09807e-26
1485 50 0.0015 0.588033 -1.85975 0 -1.95027e-12 -5.54088e-12 0 0 2.02501e-26
3523 118 0.0015 0.681111 -1.85986 0 -2.42814e-12 -2.64273e-12 0 0 1.51781e-26
2654 89 0.0015 -0.619284 -1.8578 0 -1.11425e-12 1.77953e-12 0 0 3.01061e-27
10316 344 0.0015 -0.532903 -1.85672 0 5.32921e-12 -1.86407e-12 0 3.36849e-20 1.31256e-26
10315 344 0.0015 -0.530079 -1.85763 0 -5.11377e-12 2.1972e-12 0 1.68424e-20 1.26607e-26
8013 268 0.0015 -0.167482 -1.85688 0 -7.69902e-13 -2.11758e-12 0 0 9.34761e-27
10336 345 0.0015 -0.0706718 -1.85667 0 -2.38967e-12 8.89266e-12 0 1.57149e-20 6.31654e-26
4533 152 0.0015 0.36352 -1.85607 0 3.32347e-13 -2.12177e-12 0 1.14541e-20 5.75303e-27
10272 343 0.0015 0.425614 -1.85738 0 5.30973e-13 3.94883e-12 0 1.24237e-20 8.99622e-27
1486 50 0.0015 0.59026 -1.85684 0 1.95027e-12 5.54088e-12 0 0 2.02501e-26
3522 118 0.0015 0.683648 -1.85795 0 8.2287e-12 7.76445e-12 0 0 5.99052e-26
3521 118 0.0015 0.686185 -1.85603 0 -8.02006e-12 -6.97511e-12 0 0 5.56132e-26
2655 89 0.0015 -0.623004 -1.85494 0 4.61245e-13 -1.46498e-12 0 0 2.6492e-27
10318 344 0.0015 -0.538552 -1.85491 0 2.50708e-12 2.67614e-13 0 1.68424e-20 2.19412e-27
10317 344 0.0015 -0.535727 -1.85581 0 -3.98347e-12 2.9571e-13 0 3.36849e-20 7.38774e-27
6037 202 0.0015 -0.342237 -1.85471 0 7.65213e-14 -1.11963e-13 0 0 2.05409e-27
1960 66 0.0015 0.0113172 -1.85437 0 -8.31379e-13 7.20975e-12 0 0 4.19586e-26
3520 118 0.0015 0.688722 -1.85412 0 3.21263e-12 2.71673e-12 0 0 1.10739e-26
2656 89 0.0015 -0.626725 -1.85209 0 -3.59491e-13 9.79155e-13 0 0 1.44375e-27
10320 344 0.0015 -0.5442 -1.85309 0 1.69798e-12 -7.24019e-13 0 0 2.78379e-27
10319 344 0.0015 -0.541376 -1.854 0 -2.9338e-12 8.27783e-13 0 0 3.98681e-27
10337 345 0.0015 -0.0713486 -1.85356 0 2.45775e-12 -1.34763e-11 0 0 8.71499e-26
8048 269 0.0015 0.150617 -1.85348 0 -2.49942e-13 1.96381e-12 0 3.6872e-21 1.08982e-26
10273 343 0.0015 0.426335 -1.85342 0 -5.68243e-13 -4.76859e-12 0 1.24237e-20 1.3819e-26
1487 50 0.0015 0.592486 -1.85392 0 -1.05988e-12 -2.84739e-12 0 0 4.32959e-27
3519 118 0.0015 0.69126 -1.8522 0 -1.61922e-12 -1.15314e-12 0 1.57149e-20 1.85934e-27
10338 345 0.0015 -0.0720254 -1.85046 0 -8.47196e-13 6.99774e-12 0 0 2.72167e-26
10205 341 0.0015 0.286904 -1.85184 0 6.44162e-13 -5.23395e-12 0 3.6872e-21 2.72524e-26
6006 201 0.0015 0.506013 -1.85168 0 1.70342e-12 4.51408e-12 0 1.19907e-20 2.81134e-26
1488 50 0.0015 0.594712 -1.85101 0 3.67496e-12 5.12044e-12 0 0 2.52485e-26
3518 118 0.0015 0.693797 -1.85028 0 9.40363e-13 3.30759e-13 0 1.57149e-20 1.45863e-27
2657 89 0.0015 -0.630446 -1.84923 0 1.76095e-12 -1.28535e-12 0 0 3.1007e-27
1961 66 0.0015 0.0108371 -1.84959 0 6.58784e-13 -5.68016e-12 0 0 3.67887e-26
4772 160 0.0015 0.0782973 -1.84905 0 -1.46609e-13 5.10629e-12 0 0 3.81034e-26
10274 343 0.0015 0.427056 -1.84946 0 5.94084e-13 5.97186e-12 0 0 1.99949e-26
1489 50 0.0015 0.596939 -1.8481 0 -1.18803e-12 -1.85941e-12 0 0 2.92099e-26
3517 118 0.0015 0.696334 -1.84837 0 -1.17461e-12 -1.13237e-12 0 1.57149e-20 3.33378e-27
2658 89 0.0015 -0.634167 -1.84638 0 -2.22442e-12 1.20466e-12 0 0 4.09666e-27
6038 202 0.0015 -0.34704 -1.84697 0 -7.12044e-13 1.19724e-12 0 0 2.45266e-27
10339 345 0.0015 -0.0727023 -1.84735 0 1.22084e-12 -7.03053e-12 0 0 2.82663e-26
8049 269 0.0015 0.149922 -1.84674 0 3.4718e-13 -3.19011e-12 0 3.6872e-21 1.19171e-26
6541 219 0.0015 0.213251 -1.84656 0 1.13659e-13 -1.37652e-12 0 0 3.76712e-27
4534 152 0.0015 0.362172 -1.84745 0 1.15725e-15 1.18648e-13 0 5.72705e-21 6.9912e-27
3516 118 0.0015 0.698871 -1.84645 0 4.94002e-12 5.63071e-12 0 1.57149e-20 2.91547e-26
8014 268 0.0015 -0.163039 -1.84452 0 2.4312e-13 6.83088e-13 0 0 6.53769e-27
10340 345 0.0015 -0.0733791 -1.84424 0 -1.68423e-12 7.95655e-12 0 0 3.22546e-26
1962 66 0.0015 0.010357 -1.84481 0 3.71733e-13 -4.10262e-12 0 0 2.86534e-26
10206 341 0.0015 0.286103 -1.84511 0 -4.99801e-13 3.86586e-12 0 3.6872e-21 1.99435e-26
10275 343 0.0015 0.427777 -1.84551 0 2.40005e-14 -3.46808e-12 0 0 9.7918e-27
1490 50 0.0015 0.599165 -1.84519 0 -3.70318e-12 -4.9352e-12 0 0 2.00187e-26
3515 118 0.0015 0.701409 -1.84454 0 -4.98036e-12 -6.43126e-12 0 1.57149e-20 3.1133e-26
2659 89 0.0015 -0.637888 -1.84352 0 3.45379e-12 -2.63729e-12 0 0 1.40261e-26
6007 201 0.0015 0.509028 -1.84391 0 -9.65781e-13 -2.2611e-12 0 1.7986e-20 2.01663e-26
1491 50 0.0015 0.601391 -1.84228 0 6.35176e-13 2.11722e-12 0 0 1.60605e-26
3514 118 0.0015 0.703946 -1.84262 0 9.90231e-13 1.88028e-12 0 1.57149e-20 5.46327e-27
2660 89 0.0015 -0.641609 -1.84066 0 -3.82923e-12 3.95055e-12 0 0 1.9481e-26
10341 345 0.0015 -0.074056 -1.84114 0 1.39064e-12 -6.02806e-12 0 0 1.71011e-26
1963 66 0.0015 0.00987681 -1.84004 0 -3.91722e-13 4.02646e-12 0 0 2.8757e-26
10276 343 0.0015 0.428498 -1.84155 0 -2.40005e-14 3.46808e-12 0 0 9.7918e-27
3513 118 0.0015 0.706483 -1.84071 0 6.40064e-13 2.05866e-12 0 0 1.58897e-27
6039 202 0.0015 -0.351842 -1.83924 0 -8.59161e-14 9.98674e-14 0 0 2.91497e-27
10342 345 0.0015 -0.0747328 -1.83803 0 -7.38411e-13 1.59866e-12 0 0 1.30079e-26
4773 160 0.0015 0.0780361 -1.83985 0 1.89882e-13 -6.64637e-12 0 0 5.66906e-26
8050 269 0.0015 0.149226 -1.84 0 -3.37388e-15 1.97496e-13 0 3.6872e-21 2.07878e-27
6542 219 0.0015 0.21269 -1.83947 0 -1.16088e-13 1.31652e-12 0 0 3.77414e-27
10207 341 0.0015 0.285302 -1.83839 0 -4.96696e-14 9.91218e-13 0 0 6.5155e-27
4535 152 0.0015 0.360823 -1.83883 0 -6.14635e-13 3.77713e-12 0 5.72705e-21 2.06329e-26
1492 50 0.0015 0.603618 -1.83936 0 2.85917e-12 2.3155e-12 0 0 6.60105e-27
3512 118 0.0015 0.70902 -1.83879 0 -4.63083e-12 -5.94022e-12 0 0 3.35194e-26
2661 89 0.0015 -0.64533 -1.83781 0 9.50009e-13 -2.19448e-12 0 5.32605e-21 8.03688e-27
10277 343 0.0015 0.429219 -1.8376 0 -5.94084e-13 -5.97186e-12 0 0 1.99949e-26
6008 201 0.0015 0.512043 -1.83614 0 -3.85866e-13 -1.36235e-12 0 1.19907e-20 2.58087e-27
1493 50 0.0015 0.605844 -1.83645 0 -1.75238e-12 -2.33683e-12 0 0 4.93361e-27
3511 118 0.0015 0.711558 -1.83688 0 4.34349e-12 4.26244e-12 0 0 3.2161e-26
2662 89 0.0015 -0.649051 -1.83495 0 2.54576e-12 -8.67918e-13 0 5.32605e-21 6.37357e-27
10343 345 0.0015 -0.0754097 -1.83493 0 -7.88204e-13 6.09681e-12 0 0 1.97733e-26
1964 66 0.0015 0.00939668 -1.83526 0 -6.76821e-13 6.65355e-12 0 0 5.04718e-26
2663 89 0.0015 -0.652772 -1.8321 0 -2.20095e-12 1.19941e-12 0 5.32605e-21 6.3117e-27
10171 340 0.0015 -0.234195 -1.83312 0 5.22397e-13 -7.89437e-13 0 6.39056e-21 1.94424e-27
8015 268 0.0015 -0.158597 -1.83216 0 9.66526e-13 2.65806e-12 0 0 2.05256e-26
8051 269 0.0015 0.14853 -1.83326 0 -7.78943e-14 5.31299e-13 0 0 7.86048e-28
6543 219 0.0015 0.212128 -1.83239 0 -1.55244e-13 2.0671e-12 0 0 8.01091e-27
10278 343 0.0015 0.429939 -1.83364 0 5.68243e-13 4.76859e-12 0 1.24237e-20 1.3819e-26
1494 50 0.0015 0.60807 -1.83354 0 -6.73173e-13 2.62431e-14 0 0 2.61256e-27
6040 202 0.0015 -0.356645 -1.83151 0 2.23496e-13 -3.70533e-13 0 0 2.08869e-27
10344 345 0.0015 -0.0760865 -1.83182 0 7.27014e-14 -1.18401e-12 0 0 2.64364e-26
1965 66 0.0015 0.00891654 -1.83048 0 1.13596e-12 -1.10022e-11 0 0 8.2551e-26
4774 160 0.0015 0.0777749 -1.83066 0 -1.38126e-13 4.80013e-12 0 0 3.2189e-26
10208 341 0.0015 0.284501 -1.83166 0 2.33777e-13 -2.42257e-12 0 0 6.50235e-27
4536 152 0.0015 0.359475 -1.83021 0 4.2375e-13 -2.84438e-12 0 0 1.75651e-26
1495 50 0.0015 0.610297 -1.83063 0 1.40047e-12 1.88114e-12 0 0 2.83811e-27
2664 89 0.0015 -0.656493 -1.82924 0 -1.59147e-12 1.26973e-12 0 0 7.19026e-27
10345 345 0.0015 -0.0767633 -1.82871 0 1.28485e-12 -6.82534e-12 0 0 2.13775e-26
10279 343 0.0015 0.43066 -1.82968 0 -5.30973e-13 -3.94883e-12 0 1.24237e-20 8.99622e-27
6009 201 0.0015 0.515058 -1.82837 0 2.03177e-13 7.43923e-13 0 5.99535e-21 2.17286e-27
2665 89 0.0015 -0.660213 -1.82639 0 4.97013e-12 -3.6629e-12 0 0 2.63102e-26
10172 340 0.0015 -0.238704 -1.82673 0 -8.20251e-13 1.28564e-12 0 6.39056e-21 2.6676e-27
8052 269 0.0015 0.147835 -1.82652 0 8.41897e-14 -8.95764e-13 0 0 1.90672e-27
1496 50 0.0015 0.612523 -1.82772 0 5.51508e-13 -3.37328e-13 0 0 2.32764e-27
10346 345 0.0015 -0.0774402 -1.82561 0 -9.13306e-13 4.89572e-12 0 0 1.35507e-26
1966 66 0.0015 0.0084364 -1.8257 0 -6.50129e-13 5.83229e-12 0 0 3.36618e-26
6544 219 0.0015 0.211567 -1.8253 0 1.38699e-13 -1.66458e-12 0 0 8.23612e-27
10209 341 0.0015 0.2837 -1.82493 0 -1.41239e-13 1.07627e-12 0 0 1.22569e-27
10280 343 0.0015 0.431381 -1.82573 0 4.79615e-13 3.76837e-12 0 1.24237e-20 8.31261e-27
1497 50 0.0015 0.614749 -1.8248 0 -2.33088e-12 -1.80745e-12 0 0 4.35312e-27
2666 89 0.0015 -0.663934 -1.82353 0 -5.9643e-12 4.40605e-12 0 0 3.58543e-26
6041 202 0.0015 -0.361448 -1.82377 0 2.16376e-14 -3.03749e-14 0 0 6.94792e-28
10347 345 0.0015 -0.078117 -1.8225 0 4.932e-13 -2.098e-12 0 0 2.11828e-27
2667 89 0.0015 -0.667655 -1.82068 0 2.78802e-12 -1.98892e-12 0 0 1.66499e-26
10173 340 0.0015 -0.243212 -1.82034 0 2.58522e-13 -4.54543e-13 0 6.39056e-21 7.30347e-28
1967 66 0.0015 0.00795626 -1.82092 0 3.31864e-13 -2.5543e-12 0 5.20104e-21 4.75833e-27
4775 160 0.0015 0.0775136 -1.82146 0 4.31959e-14 -1.35099e-12 0 0 7.40424e-27
4537 152 0.0015 0.358127 -1.82159 0 7.45118e-14 -9.25121e-14 0 0 2.95532e-28
10281 343 0.0015 0.432102 -1.82177 0 1.30713e-13 -1.21362e-12 0 0 2.82388e-27
6010 201 0.0015 0.518074 -1.8206 0 -8.67728e-13 -2.34336e-12 0 0 1.67379e-26
1498 50 0.0015 0.616976 -1.82189 0 4.8442e-12 4.36379e-12 0 0 2.52217e-26
8016 268 0.0015 -0.154154 -1.81981 0 -8.85246e-13 -2.43735e-12 0 0 1.9849e-26
10348 345 0.0015 -0.0787939 -1.81939 0 1.63279e-14 1.07299e-12 0 0 7.09641e-28
8053 269 0.0015 0.147139 -1.81978 0 1.52055e-13 -1.07329e-12 0 0 1.00655e-26
6545 219 0.0015 0.211005 -1.81821 0 2.23749e-13 -3.11355e-12 0 0 1.54773e-26
10210 341 0.0015 0.282899 -1.8182 0 3.99481e-14 -6.13801e-14 0 0 4.22577e-28
1499 50 0.0015 0.619202 -1.81898 0 -6.51065e-12 -6.23149e-12 0 0 4.04569e-26
2668 89 0.0015 -0.671376 -1.81782 0 6.26904e-13 -5.09014e-13 0 0 5.9322e-28
6042 202 0.0015 -0.366251 -1.81604 0 1.16268e-12 -1.86014e-12 0 0 8.89309e-27
10349 345 0.0015 -0.0794707 -1.81629 0 -1.05811e-12 2.28052e-12 0 0 6.07177e-27
1968 66 0.0015 0.00747613 -1.81614 0 -3.35307e-13 2.82706e-12 0 1.04021e-20 5.53287e-27
10282 343 0.0015 0.432823 -1.81781 0 -1.32557e-13 1.75127e-12 0 0 4.96074e-27
1500 50 0.0015 0.621428 -1.81607 0 3.0313e-12 3.02645e-12 0 0 1.83516e-26
2669 89 0.0015 -0.675097 -1.81497 0 -3.70209e-13 1.75643e-13 0 0 6.50619e-28
5941 199 0.0015 0.740778 -1.81551 0 -7.98939e-13 -3.26032e-12 0 2.60052e-21 3.00661e-26
2670 89 0.0015 -0.678818 -1.81211 0 -1.72246e-13 1.98473e-13 0 0 8.63726e-29
10174 340 0.0015 -0.24772 -1.81396 0 -1.02259e-12 1.40217e-12 0 0 6.98023e-27
10350 345 0.0015 -0.0801475 -1.81318 0 8.16937e-13 -2.50043e-12 0 0 6.04816e-27
4776 160 0.0015 0.0772524 -1.81226 0 1.18439e-14 -5.80714e-13 0 0 4.35588e-28
8054 269 0.0015 0.146443 -1.81304 0 -7.23198e-13 6.42532e-12 0 0 4.42971e-26
4538 152 0.0015 0.356779 -1.81297 0 -1.0306e-13 4.23889e-13 0 0 2.56679e-28
10283 343 0.0015 0.433544 -1.81386 0 -9.62298e-13 -7.06401e-12 0 0 3.32721e-26
6011 201 0.0015 0.521089 -1.81283 0 1.8597e-12 4.91987e-12 0 0 3.20279e-26
1969 66 0.0015 0.00699599 -1.81136 0 3.60347e-13 -3.4969e-12 0 1.04021e-20 9.06167e-27
6546 219 0.0015 0.210443 -1.81113 0 -4.52731e-13 6.03236e-12 0 0 3.63694e-26
10211 341 0.0015 0.282098 -1.81148 0 4.01464e-13 -3.00356e-12 0 0 1.41888e-26
6043 202 0.0015 -0.371054 -1.8083 0 -1.59627e-12 2.5845e-12 0 0 1.21958e-26
10284 343 0.0015 0.434265 -1.8099 0 1.22739e-12 6.93953e-12 0 0 3.29312e-26
10175 340 0.0015 -0.252228 -1.80757 0 2.5511e-12 -3.43869e-12 0 0 2.04215e-26
8017 268 0.0015 -0.149712 -1.80745 0 -4.77804e-13 -1.35051e-12 0 0 1.09364e-26
1970 66 0.0015 0.00651585 -1.80658 0 -3.88721e-13 4.14109e-12 0 5.20104e-21 1.16829e-26
8055 269 0.0015 0.145748 -1.8063 0 6.99373e-13 -6.07252e-12 0 0 4.17594e-26
5942 199 0.0015 0.743061 -1.80618 0 7.3317e-13 2.95196e-12 0 5.20104e-21 3.03311e-26
6547 219 0.0015 0.209882 -1.80404 0 3.55111e-13 -4.59717e-12 0 0 2.46707e-26
10212 341 0.0015 0.281297 -1.80475 0 -8.08703e-13 6.00308e-12 0 0 3.48522e-26
4539 152 0.0015 0.35543 -1.80435 0 7.59991e-14 -5.96032e-13 0 5.72705e-21 5.5894e-28
10285 343 0.0015 0.434986 -1.80595 0 -8.10312e-13 -3.24818e-12 0 0 6.47468e-27
6012 201 0.0015 0.524104 -1.80507 0 -1.29736e-12 -3.44193e-12 0 0 1.81767e-26
4777 160 0.0015 0.0769912 -1.80306 0 -1.30869e-14 3.92589e-13 0 0 2.18381e-28
6044 202 0.0015 -0.375856 -1.80057 0 1.10436e-12 -1.81561e-12 0 0 5.79931e-27
10176 340 0.0015 -0.256737 -1.80118 0 -1.51379e-12 1.95672e-12 0 0 1.34489e-26
1971 66 0.0015 0.00603571 -1.8018 0 -1.17977e-13 6.60669e-13 0 0 1.30074e-26