ITEM: TIMESTEP
61060
ITEM: NUMBER OF ATOMS
10500
ITEM: BOX BOUNDS pp pp pp
-1.0249999999999999e+00 1.0249999999999999e+00
-2.0000000000000000e+00 2.0000000000000000e+00
-5.0000000000000003e-02 5.0000000000000003e-02
ITEM: ATOMS id type radius x y z fx fy fz c_bendingE c_stretchingE
10321 345 0.0015 -0.0605191 -1.90326 0 9.55064e-13 -3.51013e-12 0 0 1.16555e-26
6031 202 0.0015 -0.31342 -1.90111 0 1.95217e-13 -2.9988e-13 0 0 3.23633e-28
10322 345 0.0015 -0.061196 -1.90016 0 -2.45442e-12 9.63697e-12 0 0 4.6768e-26
8041 269 0.0015 0.155487 -1.90065 0 1.8293e-13 -1.88445e-12 0 0 6.74552e-27
10261 343 0.0015 0.417684 -1.90089 0 3.93702e-13 1.93733e-12 0 0 4.36393e-27
1471 50 0.0015 0.556864 -1.90052 0 -1.1061e-12 -1.5879e-12 0 6.81478e-21 3.80559e-27
10323 345 0.0015 -0.0618728 -1.89705 0 1.19408e-12 -5.5239e-12 0 0 3.54904e-26
1951 66 0.0015 0.0156385 -1.89738 0 -6.82098e-14 8.31455e-13 0 0 9.28225e-28
10262 343 0.0015 0.418405 -1.89694 0 -3.53426e-13 -9.68359e-13 0 0 5.39448e-27
1472 50 0.0015 0.559091 -1.8976 0 1.30737e-12 1.75515e-12 0 2.04443e-20 3.87187e-27
2641 89 0.0015 -0.570912 -1.89491 0 -2.4396e-14 -1.16287e-13 0 5.32605e-21 3.44598e-30
1473 50 0.0015 0.561317 -1.89469 0 -5.0912e-13 -1.07356e-13 0 2.04443e-20 8.60575e-29
2642 89 0.0015 -0.574633 -1.89206 0 3.35134e-12 -2.12748e-12 0 5.32605e-21 2.09044e-26
6032 202 0.0015 -0.318223 -1.89337 0 -2.15513e-13 3.00191e-13 0 0 3.23938e-28
10324 345 0.0015 -0.0625496 -1.89394 0 6.22755e-13 -1.22072e-12 0 1.57149e-20 7.75709e-28
1952 66 0.0015 0.0151583 -1.8926 0 -5.37635e-14 1.25939e-13 0 0 2.17007e-27
8042 269 0.0015 0.154791 -1.89391 0 -1.3795e-13 1.73108e-12 0 3.6872e-21 6.792e-27
10263 343 0.0015 0.419126 -1.89298 0 -2.09018e-13 -2.82105e-12 0 0 4.86313e-27
3540 118 0.0015 0.637977 -1.89243 0 -6.29685e-12 -4.21721e-12 0 0 5.05587e-26
6061 203 0.0015 -0.387409 -1.89062 0 1.0679e-11 -2.47405e-12 0 2.48474e-20 6.40485e-26
10325 345 0.0015 -0.0632265 -1.89084 0 3.25176e-13 -1.93384e-12 0 1.57149e-20 6.50573e-27
10231 342 0.0015 0.215 -1.89 0 1.51528e-12 0 0 0 4.39732e-28
10232 342 0.0015 0.21569 -1.89 0 -1.08641e-12 0 0 0 4.74894e-28
10233 342 0.0015 0.216379 -1.89 0 -1.23196e-12 0 0 0 1.58716e-28
10234 342 0.0015 0.217069 -1.89 0 2.53548e-13 0 0 0 1.81407e-28
10235 342 0.0015 0.217759 -1.89 0 2.49925e-12 0 0 0 7.86085e-28
10236 342 0.0015 0.218448 -1.89 0 -2.78902e-12 0 0 0 8.63182e-28
10237 342 0.0015 0.219138 -1.89 0 2.49925e-12 0 0 0 6.62806e-28
10238 342 0.0015 0.219828 -1.89 0 -6.12158e-12 0 0 0 4.34092e-27
10239 342 0.0015 0.220517 -1.89 0 1.10839e-11 0 0 0 1.22142e-26
10240 342 0.0015 0.221207 -1.89 0 -1.23149e-11 0 0 0 1.46098e-26
10241 342 0.0015 0.221897 -1.89 0 1.1047e-11 0 0 0 1.17011e-26
10242 342 0.0015 0.222586 -1.89 0 -1.24238e-11 0 0 0 1.50663e-26
10243 342 0.0015 0.223276 -1.89 0 1.3474e-11 0 0 0 1.74326e-26
10244 342 0.0015 0.223966 -1.89 0 -1.19163e-11 0 0 0 1.36787e-26
10245 342 0.0015 0.224655 -1.89 0 1.12647e-11 0 0 0 1.21602e-26
10246 342 0.0015 0.225345 -1.89 0 -1.12647e-11 0 0 0 1.21602e-26
10247 342 0.0015 0.226034 -1.89 0 1.19163e-11 0 0 0 1.36787e-26
10248 342 0.0015 0.226724 -1.89 0 -1.3474e-11 0 0 0 1.74326e-26
10249 342 0.0015 0.227414 -1.89 0 1.24238e-11 0 0 0 1.50663e-26
10250 342 0.0015 0.228103 -1.89 0 -1.1047e-11 0 0 0 1.17011e-26
10251 342 0.0015 0.228793 -1.89 0 1.23149e-11 0 0 0 1.46098e-26
10252 342 0.0015 0.229483 -1.89 0 -1.10839e-11 0 0 0 1.22142e-26
10253 342 0.0015 0.230172 -1.89 0 6.12158e-12 0 0 0 4.34092e-27
10254 342 0.0015 0.230862 -1.89 0 -2.49925e-12 0 0 0 6.62806e-28
10255 342 0.0015 0.231552 -1.89 0 2.78902e-12 0 0 0 8.63182e-28
10256 342 0.0015 0.232241 -1.89 0 -2.49925e-12 0 0 0 7.86085e-28
10257 342 0.0015 0.232931 -1.89 0 -2.53548e-13 0 0 0 1.81407e-28
10258 342 0.0015 0.233621 -1.89 0 1.23196e-12 0 0 0 1.58716e-28
10259 342 0.0015 0.23431 -1.89 0 1.08641e-12 0 0 0 4.74894e-28
10260 342 0.0015 0.235 -1.89 0 -1.51528e-12 0 0 0 4.39732e-28
6001 201 0.0015 0.490936 -1.89052 0 1.56884e-13 4.80731e-13 0 0 5.90136e-28
1474 50 0.0015 0.563543 -1.89178 0 2.67861e-12 2.55813e-12 0 1.36296e-20 1.26339e-26
3539 118 0.0015 0.640514 -1.89051 0 7.25127e-12 4.46958e-12 0 0 5.12961e-26
2643 89 0.0015 -0.578354 -1.8892 0 -7.10431e-12 4.82133e-12 0 5.32605e-21 4.80617e-26
6063 203 0.0015 -0.391043 -1.8889 0 1.17291e-12 3.56046e-12 0 2.48474e-20 1.86442e-26
6064 203 0.0015 -0.392859 -1.88804 0 5.49246e-12 -4.51887e-14 0 0 1.06353e-26
6062 203 0.0015 -0.389226 -1.88976 0 -1.55858e-11 1.10302e-12 0 2.48474e-20 7.23079e-26
10264 343 0.0015 0.419847 -1.88903 0 -1.79429e-13 5.15558e-13 0 0 5.9515e-27
1475 50 0.0015 0.56577 -1.88887 0 -6.85438e-12 -8.16797e-12 0 6.81478e-21 6.44088e-26
3538 118 0.0015 0.643052 -1.8886 0 2.29834e-12 9.99765e-13 0 0 1.06507e-26
2644 89 0.0015 -0.582074 -1.88635 0 5.08277e-12 -3.44964e-12 0 0 3.03579e-26
6066 203 0.0015 -0.396492 -1.88631 0 2.914e-12 5.25844e-12 0 0 3.6572e-28
6065 203 0.0015 -0.394676 -1.88717 0 -3.01648e-12 -5.61362e-12 0 0 3.19153e-28
7981 267 0.0015 -0.194876 -1.88635 0 5.1586e-13 -9.04347e-13 0 0 4.44735e-28
10326 345 0.0015 -0.0639033 -1.88773 0 -1.31096e-12 4.15356e-12 0 3.14298e-20 8.68267e-27
1953 66 0.0015 0.0146782 -1.88782 0 1.47025e-14 2.21341e-13 0 0 3.11073e-27
8043 269 0.0015 0.154095 -1.88717 0 -8.7628e-14 3.40441e-13 0 7.37441e-21 1.14756e-28
3537 118 0.0015 0.645589 -1.88668 0 -8.26728e-12 -2.38068e-12 0 0 2.92723e-26
6068 203 0.0015 -0.400126 -1.88459 0 -4.95281e-12 9.10396e-12 0 0 2.15688e-26
6067 203 0.0015 -0.398309 -1.88545 0 2.40804e-12 -6.09408e-12 0 0 1.72975e-26
6033 202 0.0015 -0.323025 -1.88564 0 7.1715e-13 -1.07819e-12 0 0 4.16493e-27
7983 267 0.0015 -0.199527 -1.8846 0 3.99731e-12 -1.97615e-12 0 1.00459e-20 1.14219e-26
7982 267 0.0015 -0.197202 -1.88548 0 -3.95114e-12 3.26345e-12 0 1.00459e-20 1.17615e-26
10327 345 0.0015 -0.0645802 -1.88463 0 1.43581e-12 -3.62574e-12 0 1.57149e-20 6.62199e-27
10265 343 0.0015 0.420568 -1.88507 0 5.26315e-13 2.23578e-12 0 1.24237e-20 3.05749e-27
1476 50 0.0015 0.567996 -1.88596 0 7.34754e-12 9.40578e-12 0 6.81478e-21 7.52798e-26
3536 118 0.0015 0.648126 -1.88476 0 9.48344e-12 1.95812e-12 0 0 3.3962e-26
2645 89 0.0015 -0.585795 -1.88349 0 -1.84149e-12 1.45734e-12 0 0 3.99301e-27
6071 203 0.0015 -0.405575 -1.882 0 -1.819e-12 -3.90869e-12 0 2.48474e-20 2.05223e-28
6070 203 0.0015 -0.403759 -1.88287 0 8.81218e-12 7.74187e-12 0 0 1.00925e-26
6069 203 0.0015 -0.401942 -1.88373 0 -5.46126e-12 -8.31292e-12 0 0 1.4566e-26
7985 267 0.0015 -0.204179 -1.88284 0 -5.69477e-13 5.23522e-12 0 0 8.48068e-27
7984 267 0.0015 -0.201853 -1.88372 0 1.76467e-12 -3.74122e-12 0 1.00459e-20 7.92299e-27
1954 66 0.0015 0.0141981 -1.88304 0 -1.75128e-14 2.10605e-13 0 5.20104e-21 4.4646e-27
6002 201 0.0015 0.493952 -1.88275 0 3.88542e-13 7.78688e-13 0 0 4.94382e-27
1477 50 0.0015 0.570222 -1.88304 0 -1.57163e-12 -2.5793e-12 0 6.81478e-21 2.67804e-26
3535 118 0.0015 0.650663 -1.88285 0 -3.04524e-12 1.33728e-12 0 0 1.98686e-26
2646 89 0.0015 -0.589516 -1.88064 0 7.04417e-13 -1.16396e-12 0 0 1.1034e-27
6073 203 0.0015 -0.409209 -1.88028 0 7.50323e-12 1.33714e-11 0 4.96948e-20 2.23851e-27
6072 203 0.0015 -0.407392 -1.88114 0 -2.62264e-12 -6.33778e-12 0 4.96948e-20 4.60109e-28
7988 267 0.0015 -0.211156 -1.8802 0 3.89569e-12 4.53715e-12 0 1.00459e-20 2.13641e-27
7987 267 0.0015 -0.208831 -1.88108 0 -9.7986e-13 -1.72518e-12 0 1.00459e-20 3.47464e-27
7986 267 0.0015 -0.206505 -1.88196 0 -3.21667e-12 -1.70649e-12 0 1.00459e-20 2.06629e-27
8011 268 0.0015 -0.176367 -1.88159 0 -5.67641e-14 -1.59389e-13 0 0 1.04416e-28
10328 345 0.0015 -0.065257 -1.88152 0 -1.01008e-12 1.93596e-12 0 3.14298e-20 4.04823e-27
8044 269 0.0015 0.1534 -1.88043 0 1.36513e-14 1.43655e-13 0 7.37441e-21 2.75654e-28
10266 343 0.0015 0.421289 -1.88111 0 -8.80565e-14 -1.45672e-12 0 2.48474e-20 1.25504e-27
1478 50 0.0015 0.572449 -1.88013 0 -2.46427e-13 7.13003e-13 0 0 8.29434e-27
3534 118 0.0015 0.653201 -1.88093 0 -8.12401e-12 -6.97865e-12 0 0 6.53241e-26
10292 344 0.0015 -0.465124 -1.8785 0 -1.34283e-12 2.13778e-12 0 0 7.05115e-27
10291 344 0.0015 -0.4623 -1.87941 0 2.4283e-12 -1.57989e-12 0 0 6.43779e-27
6074 203 0.0015 -0.411025 -1.87942 0 -1.04272e-11 -1.33162e-11 0 2.48474e-20 3.8498e-27
6075 203 0.0015 -0.412842 -1.87856 0 6.80325e-12 8.40225e-12 0 0 2.21265e-27
7990 267 0.0015 -0.215808 -1.87844 0 5.77118e-12 3.45728e-12 0 1.00459e-20 6.16501e-27
7989 267 0.0015 -0.213482 -1.87932 0 -4.11403e-12 -5.02476e-12 0 0 2.21295e-27
10329 345 0.0015 -0.0659339 -1.87841 0 1.4514e-12 -4.02462e-12 0 1.57149e-20 1.61444e-26
1955 66 0.0015 0.0137179 -1.87827 0 1.03642e-13 -1.58079e-12 0 5.20104e-21 2.64306e-27
10201 341 0.0015 0.290108 -1.87875 0 -7.26378e-15 1.35131e-13 0 0 3.43196e-29
3533 118 0.0015 0.655738 -1.87902 0 1.10934e-11 7.50941e-12 0 0 8.33128e-26
2647 89 0.0015 -0.593237 -1.87778 0 -7.65232e-13 1.54786e-12 0 0 1.78117e-27
10294 344 0.0015 -0.470773 -1.87669 0 1.9978e-12 1.07329e-12 0 1.68424e-20 1.22571e-27
10293 344 0.0015 -0.467948 -1.87759 0 -1.53543e-12 -5.4022e-13 0 1.68424e-20 7.68436e-28
6077 203 0.0015 -0.416475 -1.87683 0 -4.8505e-13 4.5276e-13 0 0 1.40191e-27
6076 203 0.0015 -0.414658 -1.87769 0 -9.1589e-13 -3.60974e-12 0 0 1.332e-27
6034 202 0.0015 -0.327828 -1.87791 0 -2.8526e-13 3.669e-13 0 0 5.86966e-27
7992 267 0.0015 -0.22046 -1.87668 0 3.28079e-12 5.89783e-12 0 2.00918e-20 7.81743e-28
7991 267 0.0015 -0.218134 -1.87756 0 -5.16994e-12 -3.85312e-12 0 1.00459e-20 4.79471e-27
10267 343 0.0015 0.42201 -1.87716 0 -4.72429e-13 1.14647e-12 0 2.48474e-20 6.08077e-28
1479 50 0.0015 0.574675 -1.87722 0 -1.51181e-12 -3.12726e-12 0 0 6.43325e-27
3532 118 0.0015 0.658275 -1.8771 0 -7.7464e-12 -4.16092e-12 0 0 3.44334e-26
2648 89 0.0015 -0.596958 -1.87493 0 5.43236e-13 -1.0637e-12 0 0 1.47395e-27
10296 344 0.0015 -0.476421 -1.87487 0 5.42247e-12 2.41108e-12 0 1.68424e-20 8.2871e-27
10295 344 0.0015 -0.473597 -1.87578 0 -4.1561e-12 -3.17123e-12 0 3.36849e-20 3.88119e-27
6080 203 0.0015 -0.421925 -1.87425 0 6.76298e-12 5.17453e-12 0 0 1.16561e-26
6079 203 0.0015 -0.420108 -1.87511 0 2.60411e-12 -1.06692e-11 0 0 2.23471e-26
6078 203 0.0015 -0.418291 -1.87597 0 -4.63064e-12 6.69269e-12 0 0 2.24453e-26
7995 267 0.0015 -0.227437 -1.87404 0 -2.15577e-13 2.11687e-12 0 1.00459e-20 4.18376e-27
7994 267 0.0015 -0.225111 -1.87492 0 -3.22565e-12 1.88272e-12 0 2.00918e-20 5.25531e-27
7993 267 0.0015 -0.222785 -1.8758 0 5.22194e-13 -5.86417e-12 0 2.00918e-20 4.26675e-27
10330 345 0.0015 -0.0666107 -1.87531 0 -2.4846e-12 9.20489e-12 0 1.57149e-20 4.04587e-26
6003 201 0.0015 0.496967 -1.87498 0 -2.58007e-13 -4.5233e-13 0 0 6.05137e-27
1480 50 0.0015 0.576901 -1.87431 0 -1.26738e-12 -1.58979e-12 0 0 1.19886e-26
3531 118 0.0015 0.660812 -1.87519 0 5.32439e-12 1.18781e-12 0 0 1.29276e-26
2649 89 0.0015 -0.600679 -1.87207 0 -1.68147e-13 -1.28092e-13 0 0 2.42345e-30
10299 344 0.0015 -0.484893 -1.87215 0 -3.22633e-12 4.55656e-12 0 0 8.33878e-27
10298 344 0.0015 -0.482069 -1.87306 0 4.36456e-12 -3.72599e-12 0 0 1.23327e-26
10297 344 0.0015 -0.479245 -1.87396 0 -5.77987e-12 1.34494e-12 0 1.68424e-20 1.46472e-26
6082 203 0.0015 -0.425558 -1.87252 0 6.76529e-12 -1.77223e-13 0 0 1.10505e-26
6081 203 0.0015 -0.423741 -1.87338 0 -8.26482e-12 -9.65128e-13 0 0 1.50051e-26
7997 267 0.0015 -0.232089 -1.87228 0 -7.25844e-12 5.69017e-13 0 1.00459e-20 1.69072e-26
7996 267 0.0015 -0.229763 -1.87316 0 4.92303e-12 -2.51573e-12 0 0 1.09207e-26
10331 345 0.0015 -0.0672875 -1.8722 0 -5.01943e-13 2.36713e-12 0 0 7.62267e-26
1956 66 0.0015 0.0132378 -1.87349 0 5.63952e-15 8.48361e-13 0 5.20104e-21 6.20014e-28
8045 269 0.0015 0.152704 -1.87369 0 1.16451e-13 -1.1248e-12 0 3.6872e-21 1.40835e-27
10202 341 0.0015 0.289307 -1.87202 0 1.68216e-15 -2.64595e-13 0 0 6.51042e-29
4531 152 0.0015 0.366216 -1.8733 0 3.15227e-13 -2.00236e-12 0 0 9.95644e-27
10268 343 0.0015 0.422731 -1.8732 0 1.4442e-12 2.31005e-12 0 1.24237e-20 1.06315e-26
3530 118 0.0015 0.66335 -1.87327 0 -3.11993e-12 9.75671e-13 0 0 1.96486e-27
10301 344 0.0015 -0.490541 -1.87033 0 -8.8129e-12 3.93838e-12 0 1.68424e-20 4.046e-26
10300 344 0.0015 -0.487717 -1.87124 0 7.23382e-12 -5.41315e-12 0 0 3.52012e-26
6084 203 0.0015 -0.429191 -1.8708 0 -4.6926e-12 -9.28451e-12 0 0 1.39503e-26
6083 203 0.0015 -0.427374 -1.87166 0 -5.69226e-12 4.47452e-12 0 0 1.39408e-26
6035 202 0.0015 -0.332631 -1.87017 0 -7.13622e-13 1.24028e-12 0 0 2.64287e-27
7999 267 0.0015 -0.23674 -1.87052 0 1.82302e-12 -1.23838e-11 0 2.00918e-20 1.8468e-26
7998 267 0.0015 -0.234415 -1.8714 0 4.73082e-12 5.07617e-12 0 2.00918e-20 9.89022e-27
1481 50 0.0015 0.579128 -1.8714 0 -1.00304e-12 2.97986e-13 0 0 2.3692e-26
3529 118 0.0015 0.665887 -1.87136 0 9.94428e-13 -1.34956e-12 0 0 4.50199e-28
2650 89 0.0015 -0.6044 -1.86922 0 2.92444e-12 -1.29385e-12 0 0 1.22595e-26
10303 344 0.0015 -0.49619 -1.86852 0 4.17435e-12 -8.90907e-13 0 3.36849e-20 7.4892e-27
10302 344 0.0015 -0.493366 -1.86943 0 1.68869e-12 -5.4536e-14 0 3.36849e-20 1.35186e-26
6087 203 0.0015 -0.434641 -1.86821 0 1.23989e-11 1.18753e-11 0 4.96948e-20 1.78961e-26
6085 203 0.0015 -0.431008 -1.86994 0 1.29707e-11 1.55482e-11 0 0 8.57104e-27
6086 203 0.0015 -0.432824 -1.86908 0 -1.1177e-11 -1.92109e-11 0 2.48474e-20 1.20706e-27
8001 267 0.0015 -0.241392 -1.86876 0 3.56468e-12 -6.57817e-12 0 0 1.42954e-26
8000 267 0.0015 -0.239066 -1.86964 0 -5.26781e-12 1.2726e-11 0 1.00459e-20 3.08793e-26
8012 268 0.0015 -0.171924 -1.86923 0 2.32094e-13 6.45232e-13 0 0 1.07747e-27
10332 345 0.0015 -0.0679644 -1.86909 0 3.85708e-12 -1.60276e-11 0 0 1.20521e-25
1957 66 0.0015 0.0127576 -1.86871 0 2.31915e-13 -3.17575e-12 0 0 9.09795e-27
10269 343 0.0015 0.423451 -1.86924 0 -1.35333e-12 -3.07582e-12 0 1.24237e-20 1.0397e-26
1482 50 0.0015 0.581354 -1.86848 0 3.13165e-12 2.86881e-12 0 0 1.34909e-26
3528 118 0.0015 0.668424 -1.86944 0 3.89584e-12 2.64131e-12 0 0 1.57093e-26
2651 89 0.0015 -0.608121 -1.86636 0 -5.57175e-12 3.44206e-12 0 0 2.77503e-26
10305 344 0.0015 -0.501838 -1.8667 0 3.53919e-12 3.76112e-12 0 1.68424e-20 2.17627e-27
10304 344 0.0015 -0.499014 -1.86761 0 -4.4915e-12 -1.8141e-12 0 3.36849e-20 6.04148e-27
6089 203 0.0015 -0.438274 -1.86649 0 4.23983e-12 7.22101e-12 0 2.48474e-20 1.98569e-27
6088 203 0.0015 -0.436457 -1.86735 0 -8.91845e-12 -7.77006e-12 0 4.96948e-20 1.82388e-26
8004 267 0.0015 -0.248369 -1.86612 0 -2.78171e-12 5.70781e-13 0 0 2.84926e-27
8003 267 0.0015 -0.246044 -1.867 0 -1.37711e-12 -1.94876e-12 0 0 2.79023e-27
8002 267 0.0015 -0.243718 -1.86788 0 1.22834e-12 2.15532e-12 0 0 3.14089e-27
8046 269 0.0015 0.152008 -1.86695 0 -7.01934e-14 4.40698e-13 0 0 1.43584e-27
6004 201 0.0015 0.499982 -1.86721 0 -1.64376e-12 -4.28381e-12 0 0 3.39358e-26
3527 118 0.0015 0.670962 -1.86752 0 -5.28053e-12 -9.1014e-13 0 0 1.5769e-26
10307 344 0.0015 -0.507486 -1.86489 0 1.79413e-12 2.00158e-12 0 0 1.22842e-27
10306 344 0.0015 -0.504662 -1.8658 0 -1.92032e-12 -3.71833e-12 0 1.68424e-20 5.52544e-28
6090 203 0.0015 -0.440091 -1.86563 0 -2.86496e-12 -2.19101e-12 0 0 1.51918e-27
8006 267 0.0015 -0.253021 -1.86436 0 -2.86613e-13 -4.80327e-12 0 3.01377e-20 9.25753e-28
8005 267 0.0015 -0.250695 -1.86524 0 2.78166e-12 3.40877e-12 0 1.00459e-20 2.09843e-27
10333 345 0.0015 -0.0686412 -1.86599 0 -2.55787e-12 1.04579e-11 0 0 7.19625e-26
10203 341 0.0015 0.288506 -1.8653 0 -8.34384e-14 1.15788e-12 0 0 2.03397e-27
4532 152 0.0015 0.364868 -1.86469 0 -3.80101e-13 2.43638e-12 0 0 1.04231e-26
10270 343 0.0015 0.424172 -1.86529 0 -9.38891e-13 -6.49725e-12 0 1.24237e-20 5.15035e-26
1483 50 0.0015 0.58358 -1.86557 0 1.38557e-12 6.25096e-13 0 0 4.13504e-27
3526 118 0.0015 0.673499 -1.86561 0 2.84964e-13 -4.92479e-12 0 0 1.00066e-26
2652 89 0.0015 -0.611842 -1.86351 0 4.59735e-12 -3.26396e-12 0 5.32605e-21 2.17177e-26
10310 344 0.0015 -0.515959 -1.86217 0 -4.0131e-12 2.73886e-12 0 3.36849e-20 1.31473e-26
10309 344 0.0015 -0.513134 -1.86307 0 6.95407e-12 -2.95446e-12 0 3.36849e-20 2.33706e-26
10308 344 0.0015 -0.51031 -1.86398 0 -4.781e-12 8.52939e-13 0 1.68424e-20 1.1881e-26
6036 202 0.0015 -0.337434 -1.86244 0 -9.08604e-13 1.36808e-12 0 2.74394e-21 1.37461e-26
8008 267 0.0015 -0.257673 -1.8626 0 -9.43248e-13 -5.47324e-12 0 4.01836e-20 5.51324e-28
8007 267 0.0015 -0.255347 -1.86348 0 -4.20102e-13 4.51079e-12 0 4.01836e-20 1.38529e-27
10334 345 0.0015 -0.0693181 -1.86288 0 6.65956e-13 -2.59942e-12 0 0 3.82721e-27
1958 66 0.0015 0.0122775 -1.86393 0 -2.28911e-13 2.75885e-12 0 5.20104e-21 8.60216e-27
1484 50 0.0015 0.585807 -1.86266 0 -9.75286e-13 1.36412e-12 0 0 9.73741e-27
3525 118 0.0015 0.676036 -1.86369 0 -2.84964e-13 4.92479e-12 0 0 1.00066e-26
2653 89 0.0015 -0.615563 -1.86065 0 -2.97823e-12 2.35179e-12 0 5.32605e-21 9.59608e-27
10312 344 0.0015 -0.521607 -1.86035 0 -6.30247e-13 -2.87128e-12 0 1.68424e-20 6.43925e-27
10311 344 0.0015 -0.518783 -1.86126 0 -1.35868e-12 2.80482e-13 0 3.36849e-20 4.11279e-27
8010 267 0.0015 -0.262324 -1.86085 0 6.80978e-14 -1.73322e-12 0 1.00459e-20 3.16429e-28
8009 267 0.0015 -0.259998 -1.86172 0 9.10054e-13 4.8242e-12 0 2.00918e-20 3.3843e-28
8047 269 0.0015 0.151313 -1.86021 0 -2.17342e-13 2.54012e-12 0 3.6872e-21 9.30787e-27
10271 343 0.0015 0.424893 -1.86133 0 2.17211e-12 1.11165e-11 0 1.24237e-20 7.44634e-26
3524 118 0.0015 0.678573 -1.86178 0 5.28053e-12 9.1014e-13 0 0 1.5769e-26
10314 344 0.0015 -0.527255 -1.85854 0 -4.23788e-12 -2.49969e-12 0 0 4.80505e-27
10313 344 0.0015 -0.524431 -1.85944 0 5.21038e-12 3.27078e-12 0 1.68424e-20 6.49669e-27
10335 345 0.0015 -0.0699949 -1.85978 0 -9.04482e-13 2.75151e-12 0 0 4.54844e-27
1959 66 0.0015 0.0117974 -1.85915 0 -1.346e-13 9.96975e-13 0 1.04021e-20 2.14644e-27
4771 160 0.0015 0.0785585 -1.85825 0 -3.78055e-14 1.34469e-12 0 0 4.62518e-27
10204 341 0.0015 0.287705 -1.85857 0 5.19115e-13 -4.95873e-12 0 0 3.14189e-26
6005 201 0.0015 0.502997 -1.85945 0 1.45891e-12 3.72752e-12 0 0 3.2408e-26
1485 50 0.0015 0.588033 -1.85975 0 -2.00592e-12 -5.13388e-12 0 0 1.43911e-26
3523 118 0.0015 0.681111 -1.85986 0 -3.89584e-12 -2.64131e-12 0 0 1.57093e-26
2654 89 0.0015 -0.619284 -1.8578 0 1.59827e-12 -1.17061e-12 0 5.32605e-21 3.55159e-27
10316 344 0.0015 -0.532903 -1.85672 0 1.36164e-12 2.56459e-12 0 0 1.12486e-26
10315 344 0.0015 -0.530079 -1.85763 0 3.53769e-12 -3.8795e-13 0 0 5.60352e-27
8013 268 0.0015 -0.167482 -1.85688 0 -4.95951e-13 -1.36421e-12 0 0 4.16198e-27
10336 345 0.0015 -0.0706718 -1.85667 0 2.03815e-12 -6.1634e-12 0 0 2.04646e-26
4533 152 0.0015 0.36352 -1.85607 0 -2.68439e-13 1.65699e-12 0 0 1.13308e-26
10272 343 0.0015 0.425614 -1.85738 0 -9.52153e-13 -4.08304e-12 0 0 2.31552e-26
1486 50 0.0015 0.59026 -1.85684 0 2.00592e-12 5.13388e-12 0 0 1.43911e-26
3522 118 0.0015 0.683648 -1.85795 0 -9.94428e-13 1.34956e-12 0 0 4.50199e-28
3521 118 0.0015 0.686185 -1.85603 0 3.11993e-12 -9.75671e-13 0 0 1.96486e-27
2655 89 0.0015 -0.623004 -1.85494 0 -2.61299e-12 1.58245e-12 0 0 9.42874e-27
10318 344 0.0015 -0.538552 -1.85491 0 5.13177e-12 2.73607e-12 0 1.68424e-20 1.17378e-26
10317 344 0.0015 -0.535727 -1.85581 0 -7.75758e-12 -2.50479e-12 0 0 1.83916e-26
6037 202 0.0015 -0.342237 -1.85471 0 2.49184e-12 -3.90881e-12 0 2.74394e-21 2.71885e-26
1960 66 0.0015 0.0113172 -1.85437 0 1.56494e-13 -8.51507e-13 0 1.56031e-20 2.26485e-27
3520 118 0.0015 0.688722 -1.85412 0 -5.32439e-12 -1.18781e-12 0 0 1.29276e-26
2656 89 0.0015 -0.626725 -1.85209 0 5.18391e-12 -3.48163e-12 0 1.59781e-20 2.58322e-26
10320 344 0.0015 -0.5442 -1.85309 0 -1.6656e-12 1.27213e-12 0 1.68424e-20 3.21372e-27
10319 344 0.0015 -0.541376 -1.854 0 8.7052e-13 -2.81405e-12 0 1.68424e-20 3.28078e-27
10337 345 0.0015 -0.0713486 -1.85356 0 -1.13488e-12 2.61791e-12 0 0 1.84011e-26
8048 269 0.0015 0.150617 -1.85348 0 3.84469e-13 -4.15224e-12 0 7.37441e-21 1.64064e-26
10273 343 0.0015 0.426335 -1.85342 0 -1.58615e-13 -9.51561e-13 0 0 5.57734e-28
1487 50 0.0015 0.592486 -1.85392 0 9.75286e-13 -1.36412e-12 0 0 9.73741e-27
3519 118 0.0015 0.69126 -1.8522 0 7.7464e-12 4.16092e-12 0 0 3.44334e-26
10338 345 0.0015 -0.0720254 -1.85046 0 -5.5336e-13 2.59292e-12 0 0 3.16298e-27
10205 341 0.0015 0.286904 -1.85184 0 -7.61234e-13 6.93819e-12 0 0 4.66467e-26
6006 201 0.0015 0.506013 -1.85168 0 1.31682e-12 3.42956e-12 0 0 3.61866e-26
1488 50 0.0015 0.594712 -1.85101 0 -1.38557e-12 -6.25096e-13 0 0 4.13504e-27
3518 118 0.0015 0.693797 -1.85028 0 -1.10934e-11 -7.50941e-12 0 0 8.33128e-26
2657 89 0.0015 -0.630446 -1.84923 0 -1.46154e-12 1.26159e-12 0 3.19563e-20 2.00889e-26
1961 66 0.0015 0.0108371 -1.84959 0 2.15586e-13 -2.96634e-12 0 1.04021e-20 9.14787e-27
4772 160 0.0015 0.0782973 -1.84905 0 4.87359e-14 -1.71444e-12 0 0 4.97489e-27
10274 343 0.0015 0.427056 -1.84946 0 6.11406e-13 2.38307e-12 0 0 4.20645e-27
1489 50 0.0015 0.596939 -1.8481 0 -3.13165e-12 -2.86881e-12 0 0 1.34909e-26
3517 118 0.0015 0.696334 -1.84837 0 8.12401e-12 6.97865e-12 0 0 6.53241e-26
2658 89 0.0015 -0.634167 -1.84638 0 -5.71892e-12 3.33233e-12 0 3.19563e-20 3.51114e-26
6038 202 0.0015 -0.34704 -1.84697 0 -2.07805e-12 3.27066e-12 0 2.74394e-21 1.99954e-26
10339 345 0.0015 -0.0727023 -1.84735 0 7.43356e-13 -2.64139e-12 0 1.57149e-20 3.4037e-27
8049 269 0.0015 0.149922 -1.84674 0 -1.22383e-13 1.49186e-12 0 7.37441e-21 7.76244e-27
6541 219 0.0015 0.213251 -1.84656 0 -3.132e-13 4.08288e-12 0 0 3.31109e-26
4534 152 0.0015 0.362172 -1.84745 0 2.56688e-13 -1.62169e-12 0 5.72705e-21 1.1412e-26
3516 118 0.0015 0.698871 -1.84645 0 3.04524e-12 -1.33728e-12 0 0 1.98686e-26
8014 268 0.0015 -0.163039 -1.84452 0 1.51976e-13 3.99718e-13 0 0 4.12823e-27
10340 345 0.0015 -0.0733791 -1.84424 0 -1.85529e-12 9.15114e-12 0 1.57149e-20 5.51529e-26
1962 66 0.0015 0.010357 -1.84481 0 -3.21322e-13 3.59802e-12 0 5.20104e-21 1.03452e-26
10206 341 0.0015 0.286103 -1.84511 0 3.82076e-13 -3.46875e-12 0 0 1.76356e-26
10275 343 0.0015 0.427777 -1.84551 0 -1.21075e-12 -5.39127e-12 0 0 1.89123e-26
1490 50 0.0015 0.599165 -1.84519 0 1.00304e-12 -2.97986e-13 0 0 2.3692e-26
3515 118 0.0015 0.701409 -1.84454 0 -9.48344e-12 -1.95812e-12 0 0 3.3962e-26
2659 89 0.0015 -0.637888 -1.84352 0 8.42922e-12 -5.0515e-12 0 2.13042e-20 6.20885e-26
6007 201 0.0015 0.509028 -1.84391 0 -2.5134e-12 -6.56734e-12 0 0 5.80786e-26
1491 50 0.0015 0.601391 -1.84228 0 1.26738e-12 1.58979e-12 0 0 1.19886e-26
3514 118 0.0015 0.703946 -1.84262 0 8.26728e-12 2.38068e-12 0 0 2.92723e-26
2660 89 0.0015 -0.641609 -1.84066 0 -5.39932e-12 3.08305e-12 0 5.32605e-21 3.27638e-26
10341 345 0.0015 -0.074056 -1.84114 0 2.11225e-12 -1.1984e-11 0 1.57149e-20 7.01482e-26
1963 66 0.0015 0.00987681 -1.84004 0 3.62623e-13 -3.58604e-12 0 5.20104e-21 1.02913e-26
10276 343 0.0015 0.428498 -1.84155 0 1.21075e-12 5.39127e-12 0 0 1.89123e-26
3513 118 0.0015 0.706483 -1.84071 0 -2.29834e-12 -9.99765e-13 0 0 1.06507e-26
6039 202 0.0015 -0.351842 -1.83924 0 7.46282e-13 -1.16426e-12 0 0 5.64433e-27
10342 345 0.0015 -0.0747328 -1.83803 0 -7.47836e-13 6.2657e-12 0 1.57149e-20 2.03083e-26
4773 160 0.0015 0.0780361 -1.83985 0 -6.00652e-15 6.75627e-14 0 0 5.8313e-28
8050 269 0.0015 0.149226 -1.84 0 -2.42026e-13 2.18844e-12 0 3.6872e-21 6.02385e-27
6542 219 0.0015 0.21269 -1.83947 0 4.78236e-13 -6.38494e-12 0 0 4.36288e-26
10207 341 0.0015 0.285302 -1.83839 0 -2.48732e-13 1.87215e-12 0 0 4.22469e-27
4535 152 0.0015 0.360823 -1.83883 0 4.36098e-13 -2.70061e-12 0 5.72705e-21 1.29251e-26
1492 50 0.0015 0.603618 -1.83936 0 1.51181e-12 3.12726e-12 0 0 6.43325e-27
3512 118 0.0015 0.70902 -1.83879 0 -7.25127e-12 -4.46958e-12 0 0 5.12961e-26
2661 89 0.0015 -0.64533 -1.83781 0 -9.77224e-13 1.16468e-12 0 5.32605e-21 1.25517e-26
10277 343 0.0015 0.429219 -1.8376 0 -6.11406e-13 -2.38307e-12 0 0 4.20645e-27
6008 201 0.0015 0.512043 -1.83614 0 1.58582e-12 4.21585e-12 0 0 2.67082e-26
1493 50 0.0015 0.605844 -1.83645 0 2.46427e-13 -7.13003e-13 0 0 8.29434e-27
3511 118 0.0015 0.711558 -1.83688 0 6.29685e-12 4.21721e-12 0 0 5.05587e-26
2662 89 0.0015 -0.649051 -1.83495 0 3.2082e-12 -2.24431e-12 0 5.32605e-21 1.18575e-26
10343 345 0.0015 -0.0754097 -1.83493 0 -3.99448e-13 -3.46478e-14 0 3.14298e-20 6.29477e-27
1964 66 0.0015 0.00939668 -1.83526 0 -3.78297e-13 3.59393e-12 0 1.04021e-20 1.03172e-26
2663 89 0.0015 -0.652772 -1.8321 0 -1.15071e-12 2.54289e-13 0 1.06521e-20 1.58909e-27
10171 340 0.0015 -0.234195 -1.83312 0 1.13554e-12 -1.67836e-12 0 0 8.91381e-27
8015 268 0.0015 -0.158597 -1.83216 0 1.37191e-13 3.78259e-13 0 1.90242e-21 9.79599e-28
8051 269 0.0015 0.14853 -1.83326 0 2.45691e-13 -2.40108e-12 0 0 6.48916e-27
6543 219 0.0015 0.212128 -1.83239 0 -7.00087e-14 1.25805e-12 0 0 1.26877e-26
10278 343 0.0015 0.429939 -1.83364 0 1.58615e-13 9.51561e-13 0 0 5.57734e-28
1494 50 0.0015 0.60807 -1.83354 0 1.57163e-12 2.5793e-12 0 6.81478e-21 2.67804e-26
6040 202 0.0015 -0.356645 -1.83151 0 8.82384e-13 -1.47541e-12 0 0 6.59669e-27
10344 345 0.0015 -0.0760865 -1.83182 0 1.61259e-13 -5.69987e-13 0 3.14298e-20 4.77614e-27
1965 66 0.0015 0.00891654 -1.83048 0 -9.58284e-14 1.1144e-12 0 1.04021e-20 7.58255e-27
4774 160 0.0015 0.0777749 -1.83066 0 2.92518e-14 -7.47252e-13 0 2.71488e-21 3.05116e-27
10208 341 0.0015 0.284501 -1.83166 0 1.73994e-13 -8.07343e-13 0 0 4.50327e-27
4536 152 0.0015 0.359475 -1.83021 0 -5.56027e-13 3.43488e-12 0 5.72705e-21 1.59809e-26
1495 50 0.0015 0.610297 -1.83063 0 -7.34754e-12 -9.40578e-12 0 6.81478e-21 7.52798e-26
2664 89 0.0015 -0.656493 -1.82924 0 1.16595e-13 3.8267e-13 0 1.59781e-20 1.58878e-29
10345 345 0.0015 -0.0767633 -1.82871 0 1.89228e-12 -7.39176e-12 0 1.57149e-20 3.66286e-26
10279 343 0.0015 0.43066 -1.82968 0 9.52153e-13 4.08304e-12 0 0 2.31552e-26
6009 201 0.0015 0.515058 -1.82837 0 -6.78601e-13 -1.79759e-12 0 0 5.23557e-27
2665 89 0.0015 -0.660213 -1.82639 0 2.19176e-12 -1.47685e-12 0 1.06521e-20 8.37674e-27
10172 340 0.0015 -0.238704 -1.82673 0 -2.71898e-12 4.02469e-12 0 0 2.63063e-26
8052 269 0.0015 0.147835 -1.82652 0 1.79588e-13 -1.72493e-12 0 0 1.19487e-26
1496 50 0.0015 0.612523 -1.82772 0 6.85438e-12 8.16797e-12 0 6.81478e-21 6.44088e-26
10346 345 0.0015 -0.0774402 -1.82561 0 -1.09748e-12 3.03348e-12 0 1.57149e-20 4.3602e-26
1966 66 0.0015 0.0084364 -1.8257 0 5.12129e-13 -5.23261e-12 0 1.04021e-20 1.90523e-26
6544 219 0.0015 0.211567 -1.8253 0 5.60233e-14 -8.44425e-13 0 0 9.2569e-27
10209 341 0.0015 0.2837 -1.82493 0 2.27121e-13 -2.72414e-12 0 3.6872e-21 9.21596e-27
10280 343 0.0015 0.431381 -1.82573 0 -2.17211e-12 -1.11165e-11 0 1.24237e-20 7.44634e-26
1497 50 0.0015 0.614749 -1.8248 0 -2.67861e-12 -2.55813e-12 0 1.36296e-20 1.26339e-26
2666 89 0.0015 -0.663934 -1.82353 0 -2.4767e-12 1.53641e-12 0 5.32605e-21 8.5377e-27
6041 202 0.0015 -0.361448 -1.82377 0 -1.94796e-12 3.23214e-12 0 0 1.83865e-26
10347 345 0.0015 -0.078117 -1.8225 0 -2.02073e-12 1.1442e-11 0 1.57149e-20 7.23858e-26
2667 89 0.0015 -0.667655 -1.82068 0 -1.97725e-12 9.663e-13 0 0 8.47191e-27
10173 340 0.0015 -0.243212 -1.82034 0 3.63867e-12 -5.30394e-12 0 0 4.55596e-26
1967 66 0.0015 0.00795626 -1.82092 0 -8.03304e-13 8.2322e-12 0 5.20104e-21 4.8454e-26
4775 160 0.0015 0.0775136 -1.82146 0 -5.95518e-14 1.91612e-12 0 2.71488e-21 4.73926e-27
4537 152 0.0015 0.358127 -1.82159 0 2.41601e-13 -1.49996e-12 0 0 3.82152e-27
10281 343 0.0015 0.432102 -1.82177 0 9.38891e-13 6.49725e-12 0 1.24237e-20 5.15035e-26
6010 201 0.0015 0.518074 -1.8206 0 7.0906e-13 1.7293e-12 0 0 4.89667e-27
1498 50 0.0015 0.616976 -1.82189 0 5.0912e-13 1.07356e-13 0 2.04443e-20 8.60575e-29
8016 268 0.0015 -0.154154 -1.81981 0 6.88762e-13 1.94484e-12 0 1.90242e-21 1.40245e-26
10348 345 0.0015 -0.0787939 -1.81939 0 2.95846e-12 -1.58628e-11 0 1.57149e-20 1.15208e-25
8053 269 0.0015 0.147139 -1.81978 0 -6.00747e-13 5.98215e-12 0 0 3.52889e-26
6545 219 0.0015 0.211005 -1.81821 0 -4.53403e-13 5.45917e-12 0 0 3.24442e-26
10210 341 0.0015 0.282899 -1.8182 0 -1.90225e-13 2.37275e-12 0 3.6872e-21 8.64969e-27
1499 50 0.0015 0.619202 -1.81898 0 -1.30737e-12 -1.75515e-12 0 2.04443e-20 3.87187e-27
2668 89 0.0015 -0.671376 -1.81782 0 3.31134e-12 -1.37638e-12 0 0 9.45131e-27
6042 202 0.0015 -0.366251 -1.81604 0 2.77875e-12 -4.56176e-12 0 0 3.73811e-26
10349 345 0.0015 -0.0794707 -1.81629 0 -1.86521e-12 1.02545e-11 0 0 5.82226e-26
1968 66 0.0015 0.00747613 -1.81614 0 8.12326e-13 -8.53153e-12 0 5.20104e-21 5.10505e-26
10282 343 0.0015 0.432823 -1.81781 0 1.35333e-12 3.07582e-12 0 1.24237e-20 1.0397e-26
1500 50 0.0015 0.621428 -1.81607 0 1.1061e-12 1.5879e-12 0 6.81478e-21 3.80559e-27
2669 89 0.0015 -0.675097 -1.81497 0 -1.58264e-12 5.52054e-13 0 0 1.70546e-27
5941 199 0.0015 0.740778 -1.81551 0 1.31453e-13 5.32396e-13 0 0 8.02417e-28
2670 89 0.0015 -0.678818 -1.81211 0 5.67991e-13 -3.27972e-13 0 0 5.50912e-28
10174 340 0.0015 -0.24772 -1.81396 0 -3.98104e-12 5.72154e-12 0 0 5.28098e-26
10350 345 0.0015 -0.0801475 -1.81318 0 4.85499e-13 -2.75156e-12 0 0 6.88323e-27
4776 160 0.0015 0.0772524 -1.81226 0 2.35842e-14 -8.8813e-13 0 2.71488e-21 1.92268e-27
8054 269 0.0015 0.146443 -1.81304 0 5.46594e-13 -5.50285e-12 0 0 3.13269e-26
4538 152 0.0015 0.356779 -1.81297 0 -1.32243e-13 9.08406e-13 0 5.72705e-21 1.14373e-27
10283 343 0.0015 0.433544 -1.81386 0 -1.4442e-12 -2.31005e-12 0 1.24237e-20 1.06315e-26
6011 201 0.0015 0.521089 -1.81283 0 -1.64634e-12 -4.06072e-12 0 5.99535e-21 2.53792e-26
1969 66 0.0015 0.00699599 -1.81136 0 -7.56675e-13 7.8692e-12 0 0 4.24839e-26
6546 219 0.0015 0.210443 -1.81113 0 6.10264e-13 -7.23313e-12 0 0 5.20302e-26
10211 341 0.0015 0.282098 -1.81148 0 1.69461e-13 -2.05634e-12 0 7.37441e-21 6.30069e-27
6043 202 0.0015 -0.371054 -1.8083 0 -2.27377e-12 3.7063e-12 0 0 2.90164e-26
10284 343 0.0015 0.434265 -1.8099 0 4.72429e-13 -1.14647e-12 0 2.48474e-20 6.08077e-28
10175 340 0.0015 -0.252228 -1.80757 0 3.00246e-12 -4.29515e-12 0 0 3.22514e-26
8017 268 0.0015 -0.149712 -1.80745 0 -9.17479e-13 -2.56412e-12 0 1.90242e-21 1.61202e-26
1970 66 0.0015 0.00651585 -1.80658 0 8.75118e-13 -8.59057e-12 0 0 4.98265e-26
8055 269 0.0015 0.145748 -1.8063 0 -3.60278e-13 3.59269e-12 0 0 1.23368e-26
5942 199 0.0015 0.743061 -1.80618 0 1.98984e-13 7.96317e-13 0 2.60052e-21 5.80445e-27
6547 219 0.0015 0.209882 -1.80404 0 -3.69345e-13 4.32518e-12 0 0 2.75477e-26
10212 341 0.0015 0.281297 -1.80475 0 -3.05819e-13 2.94741e-12 0 3.6872e-21 8.67336e-27