ITEM: TIMESTEP
50310
ITEM: NUMBER OF ATOMS
10500
ITEM: BOX BOUNDS pp pp pp
-1.0249999999999999e+00 1.0249999999999999e+00
-2.0000000000000000e+00 2.0000000000000000e+00
-5.0000000000000003e-02 5.0000000000000003e-02
ITEM: ATOMS id type radius x y z fx fy fz c_bendingE c_stretchingE
10321 345 0.0015 -0.0605191 -1.90326 0 -1.86274e-12 8.27475e-12 0 0 6.35282e-26
6031 202 0.0015 -0.31342 -1.90111 0 2.09832e-13 -3.39253e-13 0 2.74394e-21 4.02387e-28
10322 345 0.0015 -0.061196 -1.90016 0 2.43723e-12 -1.08378e-11 0 0 6.96207e-26
8041 269 0.0015 0.155487 -1.90065 0 -6.55905e-14 5.37433e-13 0 0 5.51459e-28
10261 343 0.0015 0.417684 -1.90089 0 1.97344e-13 6.95097e-13 0 1.24237e-20 5.77814e-28
1471 50 0.0015 0.556864 -1.90052 0 1.8648e-12 2.13575e-12 0 0 8.15075e-27
10323 345 0.0015 -0.0618728 -1.89705 0 -9.04229e-13 4.94221e-12 0 0 1.11571e-26
1951 66 0.0015 0.0156385 -1.89738 0 -3.52402e-13 3.47859e-12 0 5.20104e-21 1.63095e-26
10262 343 0.0015 0.418405 -1.89694 0 -9.8572e-13 -4.77049e-12 0 2.48474e-20 1.98224e-26
1472 50 0.0015 0.559091 -1.8976 0 -4.79078e-12 -5.64727e-12 0 0 2.93858e-26
2641 89 0.0015 -0.570912 -1.89491 0 -6.84386e-13 3.29132e-13 0 0 7.19834e-28
1473 50 0.0015 0.561317 -1.89469 0 3.3929e-12 4.5312e-12 0 0 2.24529e-26
2642 89 0.0015 -0.574633 -1.89206 0 2.23112e-12 -1.2238e-12 0 5.32605e-21 4.80949e-27
6032 202 0.0015 -0.318223 -1.89337 0 -6.98333e-13 1.15044e-12 0 5.48788e-21 2.66943e-27
10324 345 0.0015 -0.0625496 -1.89394 0 8.1208e-13 -5.38914e-12 0 1.57149e-20 1.32455e-26
1952 66 0.0015 0.0151583 -1.8926 0 7.48393e-13 -7.33064e-12 0 1.04021e-20 3.63149e-26
8042 269 0.0015 0.154791 -1.89391 0 5.21209e-14 -2.07532e-13 0 0 7.5583e-28
10263 343 0.0015 0.419126 -1.89298 0 1.32795e-12 7.56706e-12 0 2.48474e-20 3.31783e-26
3540 118 0.0015 0.637977 -1.89243 0 -4.80281e-13 1.46732e-13 0 0 7.67994e-29
6061 203 0.0015 -0.387409 -1.89062 0 1.80571e-12 2.41162e-12 0 0 1.99527e-28
10325 345 0.0015 -0.0632265 -1.89084 0 -2.50508e-12 1.16831e-11 0 1.57149e-20 7.82087e-26
10231 342 0.0015 0.215 -1.89 0 -1.45507e-12 0 0 0 4.05597e-28
10232 342 0.0015 0.21569 -1.89 0 2.42659e-12 0 0 0 5.86495e-28
10233 342 0.0015 0.216379 -1.89 0 -6.87978e-13 0 0 0 1.96299e-28
10234 342 0.0015 0.217069 -1.89 0 -1.15929e-12 0 0 0 1.62251e-28
10235 342 0.0015 0.217759 -1.89 0 1.9566e-12 0 0 0 3.70465e-28
10236 342 0.0015 0.218448 -1.89 0 -2.10149e-12 0 0 0 4.23088e-28
10237 342 0.0015 0.219138 -1.89 0 2.89791e-12 0 0 0 8.74594e-28
10238 342 0.0015 0.219828 -1.89 0 -3.04257e-12 0 0 0 9.3526e-28
10239 342 0.0015 0.220517 -1.89 0 6.88199e-13 0 0 0 3.03744e-28
10240 342 0.0015 0.221207 -1.89 0 -2.89768e-13 0 0 0 1.56266e-28
10241 342 0.0015 0.221897 -1.89 0 1.70194e-12 0 0 0 2.80323e-28
10242 342 0.0015 0.222586 -1.89 0 1.41306e-12 0 0 0 1.22394e-27
10243 342 0.0015 0.223276 -1.89 0 -5.5416e-12 0 0 0 3.01022e-27
10244 342 0.0015 0.223966 -1.89 0 4.81718e-12 0 0 0 2.45901e-27
10245 342 0.0015 0.224655 -1.89 0 -9.42191e-13 0 0 0 5.94168e-28
10246 342 0.0015 0.225345 -1.89 0 9.42191e-13 0 0 0 5.94168e-28
10247 342 0.0015 0.226034 -1.89 0 -4.81718e-12 0 0 0 2.45901e-27
10248 342 0.0015 0.226724 -1.89 0 5.5416e-12 0 0 0 3.01022e-27
10249 342 0.0015 0.227414 -1.89 0 -1.41306e-12 0 0 0 1.22394e-27
10250 342 0.0015 0.228103 -1.89 0 -1.70194e-12 0 0 0 2.80323e-28
10251 342 0.0015 0.228793 -1.89 0 2.89768e-13 0 0 0 1.56266e-28
10252 342 0.0015 0.229483 -1.89 0 -6.88199e-13 0 0 0 3.03744e-28
10253 342 0.0015 0.230172 -1.89 0 3.04257e-12 0 0 0 9.3526e-28
10254 342 0.0015 0.230862 -1.89 0 -2.89791e-12 0 0 0 8.74594e-28
10255 342 0.0015 0.231552 -1.89 0 2.10149e-12 0 0 0 4.23088e-28
10256 342 0.0015 0.232241 -1.89 0 -1.9566e-12 0 0 0 3.70465e-28
10257 342 0.0015 0.232931 -1.89 0 1.15929e-12 0 0 0 1.62251e-28
10258 342 0.0015 0.233621 -1.89 0 6.87978e-13 0 0 0 1.96299e-28
10259 342 0.0015 0.23431 -1.89 0 -2.42659e-12 0 0 0 5.86495e-28
10260 342 0.0015 0.235 -1.89 0 1.45507e-12 0 0 0 4.05597e-28
6001 201 0.0015 0.490936 -1.89052 0 4.50488e-13 1.13388e-12 0 0 3.44559e-27
1474 50 0.0015 0.563543 -1.89178 0 9.52406e-13 3.1347e-13 0 0 4.97584e-27
3539 118 0.0015 0.640514 -1.89051 0 -1.86232e-12 -2.63215e-12 0 0 1.00892e-26
2643 89 0.0015 -0.578354 -1.8892 0 -8.68157e-13 3.26121e-13 0 5.32605e-21 5.1088e-27
6063 203 0.0015 -0.391043 -1.8889 0 4.5448e-12 1.04475e-11 0 0 8.56404e-27
6064 203 0.0015 -0.392859 -1.88804 0 5.06186e-12 -1.34061e-11 0 0 3.52011e-26
6062 203 0.0015 -0.389226 -1.88976 0 -6.61867e-12 -6.54519e-12 0 0 3.90736e-27
10264 343 0.0015 0.419847 -1.88903 0 -1.99735e-13 -2.04352e-12 0 1.24237e-20 1.63991e-26
1475 50 0.0015 0.56577 -1.88887 0 -2.47334e-12 -2.72014e-12 0 0 6.84788e-27
3538 118 0.0015 0.643052 -1.8886 0 2.73281e-12 2.90179e-12 0 0 1.02916e-26
2644 89 0.0015 -0.582074 -1.88635 0 -1.5638e-12 1.17536e-12 0 5.32605e-21 2.5155e-27
6066 203 0.0015 -0.396492 -1.88631 0 -5.4035e-12 4.66157e-13 0 0 1.49822e-26
6065 203 0.0015 -0.394676 -1.88717 0 -4.13995e-12 8.69546e-12 0 0 3.03501e-26
7981 267 0.0015 -0.194876 -1.88635 0 -7.29629e-14 9.90894e-13 0 0 1.21141e-28
10326 345 0.0015 -0.0639033 -1.88773 0 3.87811e-12 -1.56293e-11 0 3.14298e-20 1.15702e-25
1953 66 0.0015 0.0146782 -1.88782 0 -3.85885e-13 3.63646e-12 0 1.04021e-20 2.00673e-26
8043 269 0.0015 0.154095 -1.88717 0 1.80104e-13 -2.18104e-12 0 0 6.70421e-27
3537 118 0.0015 0.645589 -1.88668 0 2.06076e-13 8.16702e-13 0 0 1.59122e-27
6068 203 0.0015 -0.400126 -1.88459 0 -1.91338e-12 1.88984e-12 0 0 2.2184e-26
6067 203 0.0015 -0.398309 -1.88545 0 9.79266e-12 -4.36762e-12 0 0 3.21261e-26
6033 202 0.0015 -0.323025 -1.88564 0 6.60017e-13 -1.12578e-12 0 8.23182e-21 2.59068e-27
7983 267 0.0015 -0.199527 -1.8846 0 5.38632e-12 3.67723e-12 0 0 4.82393e-27
7982 267 0.0015 -0.197202 -1.88548 0 -2.53689e-12 -2.56556e-12 0 0 2.57302e-27
10327 345 0.0015 -0.0645802 -1.88463 0 -1.56317e-12 3.8042e-12 0 1.57149e-20 5.4391e-26
10265 343 0.0015 0.420568 -1.88507 0 1.59487e-13 1.0327e-12 0 0 9.61633e-27
1476 50 0.0015 0.567996 -1.88596 0 2.2938e-12 3.05e-12 0 0 7.47034e-27
3536 118 0.0015 0.648126 -1.88476 0 3.95435e-12 8.57284e-13 0 1.57149e-20 2.24407e-26
2645 89 0.0015 -0.585795 -1.88349 0 1.87699e-12 -1.16967e-12 0 0 3.15831e-27
6071 203 0.0015 -0.405575 -1.882 0 -1.06195e-11 -7.56007e-12 0 0 2.17573e-26
6070 203 0.0015 -0.403759 -1.88287 0 6.95484e-12 7.54948e-12 0 0 4.81555e-27
6069 203 0.0015 -0.401942 -1.88373 0 -7.33532e-12 -1.61135e-12 0 0 9.8433e-27
7985 267 0.0015 -0.204179 -1.88284 0 8.03934e-12 -7.01873e-13 0 0 2.08424e-26
7984 267 0.0015 -0.201853 -1.88372 0 -7.14214e-12 -2.52034e-12 0 0 1.30708e-26
1954 66 0.0015 0.0141981 -1.88304 0 -2.55942e-13 2.64702e-12 0 5.20104e-21 8.02989e-27
6002 201 0.0015 0.493952 -1.88275 0 1.71412e-14 8.92083e-14 0 0 7.41444e-27
1477 50 0.0015 0.570222 -1.88304 0 -7.76717e-13 -9.93388e-13 0 0 5.05374e-27
3535 118 0.0015 0.650663 -1.88285 0 -6.82673e-12 -3.33558e-12 0 1.57149e-20 2.69469e-26
2646 89 0.0015 -0.589516 -1.88064 0 -1.97302e-12 9.25286e-13 0 0 2.96253e-27
6073 203 0.0015 -0.409209 -1.88028 0 -5.23156e-12 -4.82061e-13 0 0 7.95629e-27
6072 203 0.0015 -0.407392 -1.88114 0 1.18445e-11 1.82257e-12 0 0 2.9312e-26
7988 267 0.0015 -0.211156 -1.8802 0 2.42617e-12 -7.17441e-14 0 0 5.42917e-27
7987 267 0.0015 -0.208831 -1.88108 0 -3.08089e-12 1.49821e-12 0 0 5.56674e-27
7986 267 0.0015 -0.206505 -1.88196 0 -3.08636e-12 8.41796e-13 0 0 1.04334e-26
8011 268 0.0015 -0.176367 -1.88159 0 3.81451e-13 1.05398e-12 0 0 4.58252e-27
10328 345 0.0015 -0.065257 -1.88152 0 -8.31108e-13 7.61145e-12 0 1.57149e-20 2.63782e-26
8044 269 0.0015 0.1534 -1.88043 0 -4.90792e-13 5.16758e-12 0 0 2.73954e-26
10266 343 0.0015 0.421289 -1.88111 0 -1.29297e-12 -6.28219e-12 0 0 2.39849e-26
1478 50 0.0015 0.572449 -1.88013 0 7.70233e-13 1.0851e-12 0 0 5.34957e-27
3534 118 0.0015 0.653201 -1.88093 0 1.1765e-12 1.05958e-12 0 1.57149e-20 6.6828e-27
10292 344 0.0015 -0.465124 -1.8785 0 -1.70454e-12 5.28568e-13 0 0 1.73863e-27
10291 344 0.0015 -0.4623 -1.87941 0 3.78162e-13 -7.65087e-14 0 0 1.21139e-28
6074 203 0.0015 -0.411025 -1.87942 0 5.86155e-12 2.37255e-12 0 0 6.99779e-27
6075 203 0.0015 -0.412842 -1.87856 0 -9.62414e-12 -2.03039e-12 0 0 1.73503e-26
7990 267 0.0015 -0.215808 -1.87844 0 -9.57394e-12 7.65009e-12 0 1.00459e-20 4.69752e-26
7989 267 0.0015 -0.213482 -1.87932 0 4.67751e-12 -5.16937e-12 0 1.00459e-20 2.28647e-26
10329 345 0.0015 -0.0659339 -1.87841 0 1.0164e-12 -7.3077e-12 0 1.57149e-20 2.50087e-26
1955 66 0.0015 0.0137179 -1.87827 0 9.388e-14 -6.84642e-13 0 0 1.20688e-26
10201 341 0.0015 0.290108 -1.87875 0 -2.04098e-13 1.76432e-12 0 0 5.93633e-27
3533 118 0.0015 0.655738 -1.87902 0 2.92764e-12 1.16581e-12 0 0 4.57416e-27
2647 89 0.0015 -0.593237 -1.87778 0 3.34823e-13 3.45604e-13 0 0 2.46125e-27
10294 344 0.0015 -0.470773 -1.87669 0 -7.06323e-12 2.4576e-12 0 0 2.88384e-26
10293 344 0.0015 -0.467948 -1.87759 0 3.0476e-12 -1.17767e-12 0 0 4.47025e-27
6077 203 0.0015 -0.416475 -1.87683 0 -1.20543e-11 1.74599e-12 0 0 4.16162e-26
6076 203 0.0015 -0.414658 -1.87769 0 8.69611e-12 -1.18695e-12 0 0 1.959e-26
6034 202 0.0015 -0.327828 -1.87791 0 4.82856e-13 -7.13352e-13 0 8.23182e-21 4.07814e-27
7992 267 0.0015 -0.22046 -1.87668 0 -2.98332e-13 4.89127e-12 0 0 4.8209e-27
7991 267 0.0015 -0.218134 -1.87756 0 6.80992e-12 -6.04033e-12 0 1.00459e-20 2.88589e-26
10267 343 0.0015 0.42201 -1.87716 0 3.75326e-13 1.0502e-12 0 0 2.54765e-26
1479 50 0.0015 0.574675 -1.87722 0 -2.89402e-12 -3.96044e-12 0 0 1.24379e-26
3532 118 0.0015 0.658275 -1.8771 0 -1.38532e-12 -6.72699e-13 0 0 3.96583e-27
2648 89 0.0015 -0.596958 -1.87493 0 1.33448e-12 -1.1289e-12 0 0 1.99881e-27
10296 344 0.0015 -0.476421 -1.87487 0 -2.85051e-12 2.29139e-12 0 0 2.12483e-26
10295 344 0.0015 -0.473597 -1.87578 0 9.88661e-12 -3.49565e-12 0 0 4.5498e-26
6080 203 0.0015 -0.421925 -1.87425 0 -1.06242e-12 4.49004e-12 0 0 5.48571e-27
6079 203 0.0015 -0.420108 -1.87511 0 -3.34719e-12 -9.27198e-12 0 0 8.09448e-27
6078 203 0.0015 -0.418291 -1.87597 0 1.32237e-11 4.92844e-12 0 0 3.54141e-26
7995 267 0.0015 -0.227437 -1.87404 0 3.06855e-12 6.06967e-12 0 1.00459e-20 2.55382e-28
7994 267 0.0015 -0.225111 -1.87492 0 1.36432e-12 -1.75436e-13 0 0 1.49765e-27
7993 267 0.0015 -0.222785 -1.8758 0 -3.66401e-12 -3.92913e-12 0 0 1.71082e-27
10330 345 0.0015 -0.0666107 -1.87531 0 -1.17673e-12 4.37042e-12 0 1.57149e-20 9.71204e-27
6003 201 0.0015 0.496967 -1.87498 0 -1.77532e-12 -4.53399e-12 0 5.99535e-21 3.33009e-26
1480 50 0.0015 0.576901 -1.87431 0 1.0472e-12 1.14076e-12 0 0 9.27385e-27
3531 118 0.0015 0.660812 -1.87519 0 -2.09422e-12 -2.4448e-12 0 0 6.25281e-27
2649 89 0.0015 -0.600679 -1.87207 0 -1.50773e-12 8.47886e-13 0 5.32605e-21 1.9176e-27
10299 344 0.0015 -0.484893 -1.87215 0 -2.23568e-12 -3.62878e-12 0 1.68424e-20 5.05614e-27
10298 344 0.0015 -0.482069 -1.87306 0 7.77117e-13 3.25388e-12 0 0 1.80579e-27
10297 344 0.0015 -0.479245 -1.87396 0 -2.99073e-12 -1.58447e-12 0 0 2.42008e-27
6082 203 0.0015 -0.425558 -1.87252 0 6.4457e-12 5.78123e-12 0 0 3.99735e-27
6081 203 0.0015 -0.423741 -1.87338 0 -2.4162e-12 -2.69075e-12 0 0 3.80207e-28
7997 267 0.0015 -0.232089 -1.87228 0 4.6774e-12 6.55119e-12 0 2.00918e-20 1.82289e-27
7996 267 0.0015 -0.229763 -1.87316 0 -5.5356e-12 -8.60379e-12 0 2.00918e-20 1.88173e-27
10331 345 0.0015 -0.0672875 -1.8722 0 1.91642e-12 -4.33127e-12 0 1.57149e-20 1.03319e-26
1956 66 0.0015 0.0132378 -1.87349 0 1.91057e-13 -2.36753e-12 0 0 4.61629e-27
8045 269 0.0015 0.152704 -1.87369 0 6.30457e-13 -6.28814e-12 0 0 3.7691e-26
10202 341 0.0015 0.289307 -1.87202 0 4.20618e-13 -3.64599e-12 0 0 1.26876e-26
4531 152 0.0015 0.366216 -1.8733 0 -3.15129e-13 1.93734e-12 0 0 9.33527e-27
10268 343 0.0015 0.422731 -1.8732 0 7.78944e-13 4.80956e-12 0 0 1.35206e-26
3530 118 0.0015 0.66335 -1.87327 0 -3.45266e-14 2.51386e-12 0 1.57149e-20 7.10182e-27
10301 344 0.0015 -0.490541 -1.87033 0 -3.35401e-12 2.04245e-12 0 1.68424e-20 6.50285e-27
10300 344 0.0015 -0.487717 -1.87124 0 4.27191e-12 1.70728e-12 0 1.68424e-20 5.45769e-27
6084 203 0.0015 -0.429191 -1.8708 0 8.83376e-12 9.45708e-12 0 2.48474e-20 5.5074e-27
6083 203 0.0015 -0.427374 -1.87166 0 -7.98832e-12 -8.7108e-12 0 2.48474e-20 4.12968e-27
6035 202 0.0015 -0.332631 -1.87017 0 -1.37898e-12 2.17842e-12 0 5.48788e-21 8.42919e-27
7999 267 0.0015 -0.23674 -1.87052 0 -7.63088e-12 2.4084e-12 0 0 2.29252e-26
7998 267 0.0015 -0.234415 -1.8714 0 2.89555e-12 -4.42962e-12 0 1.00459e-20 1.60529e-26
1481 50 0.0015 0.579128 -1.8714 0 -1.95034e-12 -2.59874e-12 0 0 2.18363e-26
3529 118 0.0015 0.665887 -1.87136 0 5.62319e-12 1.81235e-12 0 3.14298e-20 1.86808e-26
2650 89 0.0015 -0.6044 -1.86922 0 5.93847e-13 -1.50189e-13 0 5.32605e-21 1.23697e-27
10303 344 0.0015 -0.49619 -1.86852 0 -9.49883e-12 5.08166e-12 0 0 4.88856e-26
10302 344 0.0015 -0.493366 -1.86943 0 7.49989e-12 -6.13271e-12 0 0 4.0417e-26
6087 203 0.0015 -0.434641 -1.86821 0 -7.74369e-12 -8.30016e-12 0 0 1.19473e-26
6085 203 0.0015 -0.431008 -1.86994 0 -1.04202e-11 -6.10968e-12 0 2.48474e-20 1.30728e-26
6086 203 0.0015 -0.432824 -1.86908 0 5.91295e-12 6.08796e-12 0 0 8.67659e-27
8001 267 0.0015 -0.241392 -1.86876 0 -2.00394e-12 -2.73821e-12 0 2.00918e-20 3.13243e-28
8000 267 0.0015 -0.239066 -1.86964 0 4.42701e-12 9.72963e-13 0 1.00459e-20 7.30614e-27
8012 268 0.0015 -0.171924 -1.86923 0 -9.20488e-13 -2.54042e-12 0 0 1.37011e-26
10332 345 0.0015 -0.0679644 -1.86909 0 -2.47777e-12 6.69396e-12 0 1.57149e-20 2.2555e-26
1957 66 0.0015 0.0127576 -1.86871 0 -8.51098e-14 1.06335e-12 0 0 7.79575e-28
10269 343 0.0015 0.423451 -1.86924 0 -6.5858e-13 -3.1894e-12 0 0 6.39687e-27
1482 50 0.0015 0.581354 -1.86848 0 3.36486e-12 6.07007e-12 0 0 2.618e-26
3528 118 0.0015 0.668424 -1.86944 0 -4.60182e-12 -3.16969e-12 0 4.71447e-20 1.86861e-26
2651 89 0.0015 -0.608121 -1.86636 0 2.82856e-12 -2.08346e-12 0 5.32605e-21 1.32054e-26
10305 344 0.0015 -0.501838 -1.8667 0 4.0719e-12 -3.01262e-12 0 0 1.14775e-26
10304 344 0.0015 -0.499014 -1.86761 0 2.90084e-12 7.029e-14 0 0 1.484e-26
6089 203 0.0015 -0.438274 -1.86649 0 -1.18708e-11 -6.25068e-12 0 0 2.80532e-26
6088 203 0.0015 -0.436457 -1.86735 0 1.64269e-11 7.76607e-12 0 0 3.87719e-26
8004 267 0.0015 -0.248369 -1.86612 0 1.91007e-12 -4.90808e-12 0 2.00918e-20 4.7361e-27
8003 267 0.0015 -0.246044 -1.867 0 1.14581e-12 1.72271e-12 0 2.00918e-20 2.86613e-27
8002 267 0.0015 -0.243718 -1.86788 0 -7.80523e-13 1.74478e-12 0 3.01377e-20 1.95153e-27
8046 269 0.0015 0.152008 -1.86695 0 -1.69638e-13 1.58626e-12 0 0 2.04427e-26
6004 201 0.0015 0.499982 -1.86721 0 2.26999e-12 5.74559e-12 0 5.99535e-21 4.51961e-26
3527 118 0.0015 0.670962 -1.86752 0 -1.195e-12 2.1092e-13 0 4.71447e-20 4.46175e-27
10307 344 0.0015 -0.507486 -1.86489 0 -2.55486e-12 8.76647e-13 0 0 8.2394e-27
10306 344 0.0015 -0.504662 -1.8658 0 -3.48242e-12 2.0108e-12 0 0 1.02395e-26
6090 203 0.0015 -0.440091 -1.86563 0 2.38413e-12 2.61178e-12 0 0 5.97686e-28
8006 267 0.0015 -0.253021 -1.86436 0 -8.6352e-13 -3.24073e-12 0 2.00918e-20 6.76893e-29
8005 267 0.0015 -0.250695 -1.86524 0 -7.56682e-13 4.66793e-12 0 2.00918e-20 3.75749e-27
10333 345 0.0015 -0.0686412 -1.86599 0 1.40799e-12 -4.73707e-12 0 3.14298e-20 1.52464e-26
10203 341 0.0015 0.288506 -1.8653 0 -2.40398e-13 2.02433e-12 0 0 6.79056e-27
4532 152 0.0015 0.364868 -1.86469 0 6.01498e-13 -3.59424e-12 0 5.72705e-21 1.61847e-26
10270 343 0.0015 0.424172 -1.86529 0 1.43032e-12 6.34061e-12 0 0 3.32316e-26
1483 50 0.0015 0.58358 -1.86557 0 2.89238e-12 7.90509e-13 0 0 2.91488e-26
3526 118 0.0015 0.673499 -1.86561 0 2.77456e-12 1.11409e-12 0 4.71447e-20 4.12756e-27
2652 89 0.0015 -0.611842 -1.86351 0 -4.47439e-12 2.83639e-12 0 0 1.8858e-26
10310 344 0.0015 -0.515959 -1.86217 0 1.91576e-12 -1.99522e-12 0 1.68424e-20 3.17326e-27
10309 344 0.0015 -0.513134 -1.86307 0 -2.50518e-12 2.85647e-12 0 0 6.29325e-27
10308 344 0.0015 -0.51031 -1.86398 0 5.20302e-12 -2.90015e-12 0 0 1.4129e-26
6036 202 0.0015 -0.337434 -1.86244 0 -2.11997e-15 2.57373e-14 0 2.74394e-21 9.50872e-27
8008 267 0.0015 -0.257673 -1.8626 0 2.59849e-13 -6.6934e-13 0 0 3.8168e-28
8007 267 0.0015 -0.255347 -1.86348 0 -1.1514e-13 2.57764e-12 0 1.00459e-20 4.13041e-28
10334 345 0.0015 -0.0693181 -1.86288 0 5.73882e-13 -1.47553e-12 0 3.14298e-20 5.86444e-27
1958 66 0.0015 0.0122775 -1.86393 0 -1.2775e-13 1.51662e-12 0 0 5.42508e-27
1484 50 0.0015 0.585807 -1.86266 0 -4.45199e-12 -3.18974e-12 0 0 2.35037e-26
3525 118 0.0015 0.676036 -1.86369 0 -2.77456e-12 -1.11409e-12 0 4.71447e-20 4.12756e-27
2653 89 0.0015 -0.615563 -1.86065 0 1.85286e-12 -7.71881e-13 0 0 5.84858e-27
10312 344 0.0015 -0.521607 -1.86035 0 5.07593e-12 1.10299e-12 0 1.68424e-20 8.34992e-27
10311 344 0.0015 -0.518783 -1.86126 0 -4.23296e-12 7.32287e-13 0 1.68424e-20 7.55332e-27
8010 267 0.0015 -0.262324 -1.86085 0 5.26811e-13 7.26006e-13 0 0 3.84448e-29
8009 267 0.0015 -0.259998 -1.86172 0 -4.72846e-13 -1.22722e-12 0 0 7.42754e-29
8047 269 0.0015 0.151313 -1.86021 0 -3.33202e-13 3.34771e-12 0 3.6872e-21 1.09661e-26
10271 343 0.0015 0.424893 -1.86133 0 -1.82837e-12 -7.7503e-12 0 0 3.94058e-26
3524 118 0.0015 0.678573 -1.86178 0 1.195e-12 -2.1092e-13 0 4.71447e-20 4.46175e-27
10314 344 0.0015 -0.527255 -1.85854 0 -4.97344e-13 5.27502e-12 0 1.68424e-20 1.42793e-26
10313 344 0.0015 -0.524431 -1.85944 0 -4.9741e-12 -2.94886e-12 0 1.68424e-20 6.12615e-27
10335 345 0.0015 -0.0699949 -1.85978 0 -1.0199e-12 3.21744e-12 0 1.57149e-20 5.97393e-27
1959 66 0.0015 0.0117974 -1.85915 0 9.06207e-13 -9.48769e-12 0 0 8.14909e-26
4771 160 0.0015 0.0785585 -1.85825 0 4.10109e-14 -1.41726e-12 0 0 5.13804e-27
10204 341 0.0015 0.287705 -1.85857 0 -2.6949e-14 5.03652e-13 0 3.6872e-21 8.29003e-28
6005 201 0.0015 0.502997 -1.85945 0 -1.03318e-12 -2.67266e-12 0 5.99535e-21 1.60058e-26
1485 50 0.0015 0.588033 -1.85975 0 -4.88761e-13 -2.14713e-12 0 0 6.36111e-27
3523 118 0.0015 0.681111 -1.85986 0 4.60182e-12 3.16969e-12 0 4.71447e-20 1.86861e-26
2654 89 0.0015 -0.619284 -1.8578 0 -1.09784e-12 7.25916e-13 0 1.59781e-20 2.91076e-27
10316 344 0.0015 -0.532903 -1.85672 0 -4.23884e-12 2.0831e-12 0 0 1.4343e-26
10315 344 0.0015 -0.530079 -1.85763 0 6.6359e-12 -5.28237e-12 0 1.68424e-20 2.59802e-26
8013 268 0.0015 -0.167482 -1.85688 0 1.04714e-12 2.89113e-12 0 0 1.72571e-26
10336 345 0.0015 -0.0706718 -1.85667 0 -6.32792e-13 4.2453e-12 0 0 2.47913e-26
4533 152 0.0015 0.36352 -1.85607 0 -4.36656e-13 2.47155e-12 0 1.14541e-20 8.51108e-27
10272 343 0.0015 0.425614 -1.85738 0 7.79124e-13 1.67531e-12 0 1.24237e-20 8.47465e-27
1486 50 0.0015 0.59026 -1.85684 0 4.88761e-13 2.14713e-12 0 0 6.36111e-27
3522 118 0.0015 0.683648 -1.85795 0 -5.62319e-12 -1.81235e-12 0 3.14298e-20 1.86808e-26
3521 118 0.0015 0.686185 -1.85603 0 3.45266e-14 -2.51386e-12 0 1.57149e-20 7.10182e-27
2655 89 0.0015 -0.623004 -1.85494 0 2.03384e-12 -2.09195e-12 0 1.59781e-20 5.43399e-27
10318 344 0.0015 -0.538552 -1.85491 0 -3.32333e-12 1.18872e-12 0 0 6.23946e-27
10317 344 0.0015 -0.535727 -1.85581 0 1.41148e-12 -4.36703e-13 0 0 9.67533e-28
6037 202 0.0015 -0.342237 -1.85471 0 1.19879e-12 -1.92331e-12 0 2.74394e-21 6.80894e-27
1960 66 0.0015 0.0113172 -1.85437 0 -9.82438e-13 1.0212e-11 0 0 8.60207e-26
3520 118 0.0015 0.688722 -1.85412 0 2.09422e-12 2.4448e-12 0 0 6.25281e-27
2656 89 0.0015 -0.626725 -1.85209 0 -1.86997e-13 7.41389e-13 0 1.59781e-20 3.40091e-27
10320 344 0.0015 -0.5442 -1.85309 0 -1.31371e-12 5.4139e-13 0 0 1.65292e-27
10319 344 0.0015 -0.541376 -1.854 0 3.74416e-12 -1.42882e-12 0 0 7.16082e-27
10337 345 0.0015 -0.0713486 -1.85356 0 8.18031e-13 -6.01561e-12 0 0 2.46402e-26
8048 269 0.0015 0.150617 -1.85348 0 -6.07727e-16 -3.80554e-14 0 3.6872e-21 1.43598e-26
10273 343 0.0015 0.426335 -1.85342 0 -1.28321e-13 1.66466e-12 0 1.24237e-20 1.45809e-27
1487 50 0.0015 0.592486 -1.85392 0 4.45199e-12 3.18974e-12 0 0 2.35037e-26
3519 118 0.0015 0.69126 -1.8522 0 1.38532e-12 6.72699e-13 0 0 3.96583e-27
10338 345 0.0015 -0.0720254 -1.85046 0 4.59827e-13 3.18728e-13 0 0 9.59923e-28
10205 341 0.0015 0.286904 -1.85184 0 -3.51013e-14 -1.74413e-13 0 7.37441e-21 1.22106e-27
6006 201 0.0015 0.506013 -1.85168 0 -4.62038e-14 7.88324e-15 0 5.99535e-21 2.94513e-28
1488 50 0.0015 0.594712 -1.85101 0 -2.89238e-12 -7.90509e-13 0 0 2.91488e-26
3518 118 0.0015 0.693797 -1.85028 0 -2.92764e-12 -1.16581e-12 0 0 4.57416e-27
2657 89 0.0015 -0.630446 -1.84923 0 -9.95859e-13 9.36179e-13 0 0 1.24396e-27
1961 66 0.0015 0.0108371 -1.84959 0 4.06732e-13 -4.42369e-12 0 0 1.37628e-26
4772 160 0.0015 0.0782973 -1.84905 0 -5.798e-14 2.04417e-12 0 0 6.14327e-27
10274 343 0.0015 0.427056 -1.84946 0 -6.05909e-13 -4.27613e-12 0 1.24237e-20 1.46532e-26
1489 50 0.0015 0.596939 -1.8481 0 -3.36486e-12 -6.07007e-12 0 0 2.618e-26
3517 118 0.0015 0.696334 -1.84837 0 -1.1765e-12 -1.05958e-12 0 1.57149e-20 6.6828e-27
2658 89 0.0015 -0.634167 -1.84638 0 5.46017e-13 -1.38022e-12 0 0 1.07272e-27
6038 202 0.0015 -0.34704 -1.84697 0 4.48291e-13 -7.69134e-13 0 2.74394e-21 9.92978e-27
10339 345 0.0015 -0.0727023 -1.84735 0 6.23259e-13 -3.92608e-12 0 0 1.89594e-26
8049 269 0.0015 0.149922 -1.84674 0 1.8448e-13 -1.9773e-12 0 3.6872e-21 7.04598e-27
6541 219 0.0015 0.213251 -1.84656 0 2.25675e-13 -2.74592e-12 0 0 1.49895e-26
4534 152 0.0015 0.362172 -1.84745 0 -6.52169e-14 5.4755e-13 0 1.71811e-20 6.27071e-27
3516 118 0.0015 0.698871 -1.84645 0 6.82673e-12 3.33558e-12 0 1.57149e-20 2.69469e-26
8014 268 0.0015 -0.163039 -1.84452 0 -5.96325e-13 -1.65297e-12 0 0 8.39171e-27
10340 345 0.0015 -0.0733791 -1.84424 0 -1.34272e-12 5.1031e-12 0 1.57149e-20 1.90259e-26
1962 66 0.0015 0.010357 -1.84481 0 -2.42094e-13 2.4738e-12 0 0 4.79979e-27
10206 341 0.0015 0.286103 -1.84511 0 2.77633e-13 -1.99936e-12 0 7.37441e-21 4.89099e-27
10275 343 0.0015 0.427777 -1.84551 0 1.88445e-12 9.25366e-12 0 0 5.29184e-26
1490 50 0.0015 0.599165 -1.84519 0 1.95034e-12 2.59874e-12 0 0 2.18363e-26
3515 118 0.0015 0.701409 -1.84454 0 -3.95435e-12 -8.57284e-13 0 1.57149e-20 2.24407e-26
2659 89 0.0015 -0.637888 -1.84352 0 9.65187e-13 5.36559e-13 0 0 2.4062e-27
6007 201 0.0015 0.509028 -1.84391 0 1.96311e-14 -6.81132e-14 0 5.99535e-21 3.79872e-28
1491 50 0.0015 0.601391 -1.84228 0 -1.0472e-12 -1.14076e-12 0 0 9.27385e-27
3514 118 0.0015 0.703946 -1.84262 0 -2.06076e-13 -8.16702e-13 0 0 1.59122e-27
2660 89 0.0015 -0.641609 -1.84066 0 -3.27364e-12 1.13732e-12 0 0 7.67355e-27
10341 345 0.0015 -0.074056 -1.84114 0 8.94561e-14 1.68466e-12 0 1.57149e-20 5.11113e-27
1963 66 0.0015 0.00987681 -1.84004 0 -2.15358e-13 2.7349e-12 0 0 1.68965e-26
10276 343 0.0015 0.428498 -1.84155 0 -1.88445e-12 -9.25366e-12 0 0 5.29184e-26
3513 118 0.0015 0.706483 -1.84071 0 -2.73281e-12 -2.90179e-12 0 0 1.02916e-26
6039 202 0.0015 -0.351842 -1.83924 0 -9.0642e-13 1.52347e-12 0 2.74394e-21 7.95488e-27
10342 345 0.0015 -0.0747328 -1.83803 0 4.04601e-13 -3.20457e-12 0 1.57149e-20 5.43303e-27
4773 160 0.0015 0.0780361 -1.83985 0 2.02993e-14 -8.42059e-13 0 2.71488e-21 1.12354e-27
8050 269 0.0015 0.149226 -1.84 0 1.45449e-13 -9.33355e-13 0 3.6872e-21 1.86756e-27
6542 219 0.0015 0.21269 -1.83947 0 -3.51597e-13 4.03214e-12 0 0 1.82865e-26
10207 341 0.0015 0.285302 -1.83839 0 -3.15118e-13 2.60887e-12 0 3.6872e-21 6.68902e-27
4535 152 0.0015 0.360823 -1.83883 0 6.86461e-13 -4.18434e-12 0 1.14541e-20 2.4444e-26
1492 50 0.0015 0.603618 -1.83936 0 2.89402e-12 3.96044e-12 0 0 1.24379e-26
3512 118 0.0015 0.70902 -1.83879 0 1.86232e-12 2.63215e-12 0 0 1.00892e-26
2661 89 0.0015 -0.64533 -1.83781 0 3.20271e-12 -1.49823e-12 0 0 8.20028e-27
10277 343 0.0015 0.429219 -1.8376 0 6.05909e-13 4.27613e-12 0 1.24237e-20 1.46532e-26
6008 201 0.0015 0.512043 -1.83614 0 3.96867e-13 1.19771e-12 0 5.99535e-21 2.30256e-27
1493 50 0.0015 0.605844 -1.83645 0 -7.70233e-13 -1.0851e-12 0 0 5.34957e-27
3511 118 0.0015 0.711558 -1.83688 0 4.80281e-13 -1.46732e-13 0 0 7.67994e-29
2662 89 0.0015 -0.649051 -1.83495 0 -2.09993e-12 1.51668e-12 0 0 4.36883e-27
10343 345 0.0015 -0.0754097 -1.83493 0 4.05112e-13 -7.28237e-13 0 0 3.30567e-27
1964 66 0.0015 0.00939668 -1.83526 0 1.74109e-13 -2.66815e-12 0 5.20104e-21 1.70422e-26
2663 89 0.0015 -0.652772 -1.8321 0 -5.34302e-13 2.71486e-14 0 0 5.91859e-27
10171 340 0.0015 -0.234195 -1.83312 0 4.6479e-13 -5.90299e-13 0 0 1.22248e-27
8015 268 0.0015 -0.158597 -1.83216 0 1.16574e-13 3.4182e-13 0 0 2.87976e-28
8051 269 0.0015 0.14853 -1.83326 0 -4.08258e-14 -2.79917e-13 0 3.6872e-21 4.89351e-27
6543 219 0.0015 0.212128 -1.83239 0 1.03871e-13 -5.57637e-13 0 0 4.34367e-27
10278 343 0.0015 0.429939 -1.83364 0 1.28321e-13 -1.66466e-12 0 1.24237e-20 1.45809e-27
1494 50 0.0015 0.60807 -1.83354 0 7.76717e-13 9.93388e-13 0 0 5.05374e-27
6040 202 0.0015 -0.356645 -1.83151 0 -7.55545e-13 1.1787e-12 0 0 4.94743e-27
10344 345 0.0015 -0.0760865 -1.83182 0 -1.15016e-12 3.44977e-12 0 0 5.7897e-27
1965 66 0.0015 0.00891654 -1.83048 0 4.22104e-13 -3.50035e-12 0 1.04021e-20 1.07142e-26
4774 160 0.0015 0.0777749 -1.83066 0 1.58536e-14 -4.5991e-13 0 2.71488e-21 1.28396e-27
10208 341 0.0015 0.284501 -1.83166 0 1.37732e-13 -1.2772e-12 0 0 2.30175e-27
4536 152 0.0015 0.359475 -1.83021 0 -5.47995e-13 3.13108e-12 0 5.72705e-21 2.00786e-26
1495 50 0.0015 0.610297 -1.83063 0 -2.2938e-12 -3.05e-12 0 0 7.47034e-27
2664 89 0.0015 -0.656493 -1.82924 0 2.86954e-12 -2.04126e-12 0 0 8.07362e-27
10345 345 0.0015 -0.0767633 -1.82871 0 6.36008e-13 -1.50585e-12 0 1.57149e-20 3.29508e-27
10279 343 0.0015 0.43066 -1.82968 0 -7.79124e-13 -1.67531e-12 0 1.24237e-20 8.47465e-27
6009 201 0.0015 0.515058 -1.82837 0 4.47004e-14 -2.17525e-13 0 0 3.41342e-27
2665 89 0.0015 -0.660213 -1.82639 0 -2.52795e-13 4.48137e-13 0 0 6.57966e-27
10172 340 0.0015 -0.238704 -1.82673 0 -1.66191e-12 2.16945e-12 0 0 9.74014e-27
8052 269 0.0015 0.147835 -1.82652 0 -1.99749e-13 2.64863e-12 0 7.37441e-21 6.64626e-27
1496 50 0.0015 0.612523 -1.82772 0 2.47334e-12 2.72014e-12 0 0 6.84788e-27
10346 345 0.0015 -0.0774402 -1.82561 0 1.0518e-13 -7.94833e-13 0 1.57149e-20 2.98926e-28
1966 66 0.0015 0.0084364 -1.8257 0 -8.27547e-14 5.58518e-13 0 1.04021e-20 1.6019e-26
6544 219 0.0015 0.211567 -1.8253 0 1.1224e-13 -2.20523e-12 0 3.51396e-21 5.36706e-27
10209 341 0.0015 0.2837 -1.82493 0 -1.61175e-14 3.74272e-13 0 0 1.31634e-28
10280 343 0.0015 0.431381 -1.82573 0 1.82837e-12 7.7503e-12 0 0 3.94058e-26
1497 50 0.0015 0.614749 -1.8248 0 -9.52406e-13 -3.1347e-13 0 0 4.97584e-27
2666 89 0.0015 -0.663934 -1.82353 0 -2.91708e-12 2.1682e-12 0 0 9.20985e-27
6041 202 0.0015 -0.361448 -1.82377 0 6.75963e-13 -1.11204e-12 0 0 4.97142e-27
10347 345 0.0015 -0.078117 -1.8225 0 8.61066e-13 -3.75603e-12 0 3.14298e-20 1.69364e-26
2667 89 0.0015 -0.667655 -1.82068 0 2.98613e-12 -3.04607e-12 0 0 1.17112e-26
10173 340 0.0015 -0.243212 -1.82034 0 1.16034e-12 -1.46259e-12 0 6.39056e-21 8.54709e-27
1967 66 0.0015 0.00795626 -1.82092 0 -6.6575e-13 6.62853e-12 0 5.20104e-21 3.3314e-26
4775 160 0.0015 0.0775136 -1.82146 0 -4.60039e-14 1.69041e-12 0 2.71488e-21 3.80243e-27
4537 152 0.0015 0.358127 -1.82159 0 -4.55293e-15 2.72819e-13 0 5.72705e-21 1.07976e-27
10281 343 0.0015 0.432102 -1.82177 0 -1.43032e-12 -6.34061e-12 0 0 3.32316e-26
6010 201 0.0015 0.518074 -1.8206 0 -1.8893e-13 -1.65818e-13 0 0 2.00634e-27
1498 50 0.0015 0.616976 -1.82189 0 -3.3929e-12 -4.5312e-12 0 0 2.24529e-26
8016 268 0.0015 -0.154154 -1.81981 0 -2.77295e-13 -7.99174e-13 0 0 2.07684e-27
10348 345 0.0015 -0.0787939 -1.81939 0 -9.73134e-13 3.7737e-12 0 1.57149e-20 1.69017e-26
8053 269 0.0015 0.147139 -1.81978 0 -2.96553e-14 -1.84001e-13 0 7.37441e-21 6.35268e-27
6545 219 0.0015 0.211005 -1.81821 0 3.04052e-14 -6.34624e-14 0 7.02791e-21 9.03288e-27
10210 341 0.0015 0.282899 -1.8182 0 -1.60848e-13 1.03716e-12 0 0 2.88944e-27
1499 50 0.0015 0.619202 -1.81898 0 4.79078e-12 5.64727e-12 0 0 2.93858e-26
2668 89 0.0015 -0.671376 -1.81782 0 -8.58115e-13 1.92111e-12 0 0 4.82915e-27
6042 202 0.0015 -0.366251 -1.81604 0 7.25692e-13 -1.06804e-12 0 0 3.62165e-27
10349 345 0.0015 -0.0794707 -1.81629 0 -1.28397e-12 6.51731e-12 0 1.57149e-20 3.39627e-26
1968 66 0.0015 0.00747613 -1.81614 0 3.98326e-13 -4.07234e-12 0 0 2.73692e-26
10282 343 0.0015 0.432823 -1.81781 0 6.5858e-13 3.1894e-12 0 0 6.39687e-27
1500 50 0.0015 0.621428 -1.81607 0 -1.8648e-12 -2.13575e-12 0 0 8.15075e-27
2669 89 0.0015 -0.675097 -1.81497 0 -1.16067e-12 1.10948e-14 0 0 9.57216e-28
5941 199 0.0015 0.740778 -1.81551 0 -4.34219e-13 -1.79108e-12 0 0 9.06274e-27
2670 89 0.0015 -0.678818 -1.81211 0 7.92606e-13 -3.69893e-13 0 0 9.50165e-28
10174 340 0.0015 -0.24772 -1.81396 0 9.35454e-13 -1.45537e-12 0 6.39056e-21 5.67259e-27
10350 345 0.0015 -0.0801475 -1.81318 0 1.27885e-12 -6.05112e-12 0 0 3.37786e-26
4776 160 0.0015 0.0772524 -1.81226 0 5.64615e-14 -2.06067e-12 0 0 5.43181e-27
8054 269 0.0015 0.146443 -1.81304 0 3.21597e-13 -3.03707e-12 0 7.37441e-21 9.16406e-27
4538 152 0.0015 0.356779 -1.81297 0 1.20175e-13 -8.25526e-13 0 5.72705e-21 9.8364e-28
10283 343 0.0015 0.433544 -1.81386 0 -7.78944e-13 -4.80956e-12 0 0 1.35206e-26
6011 201 0.0015 0.521089 -1.81283 0 -1.33868e-12 -3.56075e-12 0 0 2.53673e-26
1969 66 0.0015 0.00699599 -1.81136 0 5.60853e-14 -2.384e-13 0 5.20104e-21 2.74356e-28
6546 219 0.0015 0.210443 -1.81113 0 -2.82624e-13 3.86421e-12 0 1.05419e-20 1.54295e-26
10211 341 0.0015 0.282098 -1.81148 0 5.13907e-13 -4.18839e-12 0 0 1.96931e-26
6043 202 0.0015 -0.371054 -1.8083 0 -1.57973e-12 2.4353e-12 0 0 1.09876e-26
10284 343 0.0015 0.434265 -1.8099 0 -3.75326e-13 -1.0502e-12 0 0 2.54765e-26
10175 340 0.0015 -0.252228 -1.80757 0 -8.20621e-13 1.30396e-12 0 6.39056e-21 5.65488e-27
8017 268 0.0015 -0.149712 -1.80745 0 3.38399e-13 9.58019e-13 0 0 2.30359e-27
1970 66 0.0015 0.00651585 -1.80658 0 4.70718e-13 -5.01284e-12 0 1.04021e-20 3.15449e-26
8055 269 0.0015 0.145748 -1.8063 0 -2.26347e-13 2.35606e-12 0 3.6872e-21 6.93333e-27
5942 199 0.0015 0.743061 -1.80618 0 5.39103e-13 2.26522e-12 0 0 9.69164e-27
6547 219 0.0015 0.209882 -1.80404 0 2.65178e-14 -1.05671e-12 0 7.02791e-21 1.39227e-26
10212 341 0.0015 0.281297 -1.80475 0 -7.60315e-13 6.58949e-12 0 0 4.17934e-26
4539 152 0.0015 0.35543 -1.80435 0 -2.15123e-14 9.80765e-14 0 5.72705e-21 1.99659e-28
10285 343 0.0015 0.434986 -1.80595 0 1.29297e-12 6.28219e-12 0 0 2.39849e-26