ITEM: TIMESTEP
98040
ITEM: NUMBER OF ATOMS
10500
ITEM: BOX BOUNDS pp pp pp
-1.0249999999999999e+00 1.0249999999999999e+00
-2.0000000000000000e+00 2.0000000000000000e+00
-5.0000000000000003e-02 5.0000000000000003e-02
ITEM: ATOMS id type radius x y z fx fy fz c_bendingE c_stretchingE
10321 345 0.0015 -0.0605191 -1.90326 0 -7.72937e-13 2.79308e-12 0 1.57149e-20 7.39425e-27
6031 202 0.0015 -0.31342 -1.90111 0 2.03237e-12 -3.27905e-12 0 0 3.76354e-26
10322 345 0.0015 -0.061196 -1.90016 0 -1.2791e-13 3.37431e-12 0 1.57149e-20 4.15359e-26
8041 269 0.0015 0.155487 -1.90065 0 2.89024e-13 -2.81699e-12 0 3.6872e-21 1.50907e-26
10261 343 0.0015 0.417684 -1.90089 0 -6.09548e-14 -1.65878e-12 0 0 3.01481e-27
1471 50 0.0015 0.556864 -1.90052 0 -1.08502e-12 -1.76579e-12 0 0 4.3284e-27
10323 345 0.0015 -0.0618728 -1.89705 0 2.15509e-12 -1.37905e-11 0 3.14298e-20 8.67085e-26
1951 66 0.0015 0.0156385 -1.89738 0 3.66642e-13 -3.61405e-12 0 0 1.7605e-26
10262 343 0.0015 0.418405 -1.89694 0 5.25603e-13 6.7606e-12 0 0 3.2097e-26
1472 50 0.0015 0.559091 -1.8976 0 2.02403e-13 1.13964e-12 0 0 5.41598e-27
2641 89 0.0015 -0.570912 -1.89491 0 1.5142e-12 -9.56214e-13 0 0 4.14362e-27
1473 50 0.0015 0.561317 -1.89469 0 8.10362e-13 4.19235e-13 0 0 1.13175e-27
2642 89 0.0015 -0.574633 -1.89206 0 -2.81202e-12 1.63831e-12 0 0 6.8634e-27
6032 202 0.0015 -0.318223 -1.89337 0 -4.16909e-12 6.77916e-12 0 0 8.0158e-26
10324 345 0.0015 -0.0625496 -1.89394 0 -2.1547e-12 1.13355e-11 0 1.57149e-20 6.54472e-26
1952 66 0.0015 0.0151583 -1.8926 0 -3.49967e-13 3.33803e-12 0 0 1.77068e-26
8042 269 0.0015 0.154791 -1.89391 0 -6.77246e-13 6.56711e-12 0 7.37441e-21 4.18401e-26
10263 343 0.0015 0.419126 -1.89298 0 -1.24423e-12 -1.17305e-11 0 0 7.86448e-26
3540 118 0.0015 0.637977 -1.89243 0 -3.4305e-12 -2.8952e-12 0 0 1.77424e-26
6061 203 0.0015 -0.387409 -1.89062 0 2.79956e-12 -3.90524e-12 0 0 9.86774e-27
10325 345 0.0015 -0.0632265 -1.89084 0 2.20167e-12 -7.01309e-12 0 1.57149e-20 2.37105e-26
10231 342 0.0015 0.215 -1.89 0 1.44262e-12 0 0 0 3.98686e-28
10232 342 0.0015 0.21569 -1.89 0 -6.15979e-13 0 0 0 5.29662e-28
10233 342 0.0015 0.216379 -1.89 0 -3.98409e-12 0 0 0 2.04085e-27
10234 342 0.0015 0.217069 -1.89 0 7.28109e-12 0 0 0 5.16636e-27
10235 342 0.0015 0.217759 -1.89 0 -8.69372e-12 0 0 0 7.25756e-27
10236 342 0.0015 0.218448 -1.89 0 1.09748e-11 0 0 0 1.18598e-26
10237 342 0.0015 0.219138 -1.89 0 -1.45602e-11 0 0 0 2.0602e-26
10238 342 0.0015 0.219828 -1.89 0 1.56468e-11 0 0 0 2.34948e-26
10239 342 0.0015 0.220517 -1.89 0 -1.43429e-11 0 0 0 1.97458e-26
10240 342 0.0015 0.221207 -1.89 0 1.55748e-11 0 0 0 2.35711e-26
10241 342 0.0015 0.221897 -1.89 0 -1.64084e-11 0 0 0 2.58912e-26
10242 342 0.0015 0.222586 -1.89 0 1.25329e-11 0 0 0 1.58157e-26
10243 342 0.0015 0.223276 -1.89 0 -9.88834e-12 0 0 0 9.36942e-27
10244 342 0.0015 0.223966 -1.89 0 1.20245e-11 0 0 0 1.42133e-26
10245 342 0.0015 0.224655 -1.89 0 -1.68786e-11 0 0 0 2.81005e-26
10246 342 0.0015 0.225345 -1.89 0 1.68786e-11 0 0 0 2.81005e-26
10247 342 0.0015 0.226034 -1.89 0 -1.20245e-11 0 0 0 1.42133e-26
10248 342 0.0015 0.226724 -1.89 0 9.88834e-12 0 0 0 9.36942e-27
10249 342 0.0015 0.227414 -1.89 0 -1.25329e-11 0 0 0 1.58157e-26
10250 342 0.0015 0.228103 -1.89 0 1.64084e-11 0 0 0 2.58912e-26
10251 342 0.0015 0.228793 -1.89 0 -1.55748e-11 0 0 0 2.35711e-26
10252 342 0.0015 0.229483 -1.89 0 1.43429e-11 0 0 0 1.97458e-26
10253 342 0.0015 0.230172 -1.89 0 -1.56468e-11 0 0 0 2.34948e-26
10254 342 0.0015 0.230862 -1.89 0 1.45602e-11 0 0 0 2.0602e-26
10255 342 0.0015 0.231552 -1.89 0 -1.09748e-11 0 0 0 1.18598e-26
10256 342 0.0015 0.232241 -1.89 0 8.69372e-12 0 0 0 7.25756e-27
10257 342 0.0015 0.232931 -1.89 0 -7.28109e-12 0 0 0 5.16636e-27
10258 342 0.0015 0.233621 -1.89 0 3.98409e-12 0 0 0 2.04085e-27
10259 342 0.0015 0.23431 -1.89 0 6.15979e-13 0 0 0 5.29662e-28
10260 342 0.0015 0.235 -1.89 0 -1.44262e-12 0 0 0 3.98686e-28
6001 201 0.0015 0.490936 -1.89052 0 1.9025e-13 5.02747e-13 0 0 6.68799e-28
1474 50 0.0015 0.563543 -1.89178 0 -1.58458e-12 -1.95042e-12 0 0 7.5782e-27
3539 118 0.0015 0.640514 -1.89051 0 2.40912e-12 2.23021e-12 0 1.57149e-20 1.90478e-26
2643 89 0.0015 -0.578354 -1.8892 0 1.78406e-12 -9.89497e-13 0 0 3.14737e-27
6063 203 0.0015 -0.391043 -1.8889 0 -1.75445e-13 -9.91495e-12 0 0 6.81085e-27
6064 203 0.0015 -0.392859 -1.88804 0 -4.29416e-12 2.94184e-12 0 0 1.14441e-26
6062 203 0.0015 -0.389226 -1.88976 0 -3.36523e-12 1.07116e-11 0 0 1.64331e-26
10264 343 0.0015 0.419847 -1.88903 0 1.67513e-12 1.32674e-11 0 0 9.95827e-26
1475 50 0.0015 0.56577 -1.88887 0 1.70633e-12 1.85546e-12 0 0 7.57884e-27
3538 118 0.0015 0.643052 -1.8886 0 4.2095e-13 1.00596e-13 0 1.57149e-20 1.89813e-27
2644 89 0.0015 -0.582074 -1.88635 0 6.67888e-13 -6.65582e-13 0 0 3.39003e-27
6066 203 0.0015 -0.396492 -1.88631 0 -2.07665e-12 -6.54721e-12 0 0 5.84823e-27
6065 203 0.0015 -0.394676 -1.88717 0 8.04722e-12 2.37353e-12 0 0 1.29587e-26
7981 267 0.0015 -0.194876 -1.88635 0 -1.49105e-12 -2.47541e-12 0 0 1.86005e-28
10326 345 0.0015 -0.0639033 -1.88773 0 -2.77718e-12 7.63597e-12 0 0 2.9114e-26
1953 66 0.0015 0.0146782 -1.88782 0 2.0722e-13 -1.85183e-12 0 0 6.20925e-27
8043 269 0.0015 0.154095 -1.88717 0 9.75595e-13 -9.45739e-12 0 1.10616e-20 8.86969e-26
3537 118 0.0015 0.645589 -1.88668 0 4.35768e-12 4.55293e-12 0 1.57149e-20 2.63617e-26
6068 203 0.0015 -0.400126 -1.88459 0 7.23091e-12 -5.335e-12 0 0 2.57659e-26
6067 203 0.0015 -0.398309 -1.88545 0 -2.19935e-12 7.52607e-12 0 0 7.60023e-27
6033 202 0.0015 -0.323025 -1.88564 0 2.44757e-12 -4.1295e-12 0 0 4.37571e-26
7983 267 0.0015 -0.199527 -1.8846 0 -5.71898e-12 -7.05617e-12 0 0 8.84462e-27
7982 267 0.0015 -0.197202 -1.88548 0 6.60258e-12 6.05032e-12 0 0 8.7267e-27
10327 345 0.0015 -0.0645802 -1.88463 0 3.25028e-12 -1.17715e-11 0 0 6.98766e-26
10265 343 0.0015 0.420568 -1.88507 0 -1.34991e-12 -9.33595e-12 0 0 5.83756e-26
1476 50 0.0015 0.567996 -1.88596 0 2.46976e-12 3.99808e-12 0 0 2.03573e-26
3536 118 0.0015 0.648126 -1.88476 0 -3.43146e-12 -5.16297e-12 0 0 2.59459e-26
2645 89 0.0015 -0.585795 -1.88349 0 -5.13599e-12 4.43481e-12 0 0 3.9097e-26
6071 203 0.0015 -0.405575 -1.882 0 -3.15767e-12 3.3711e-12 0 2.48474e-20 3.14855e-26
6070 203 0.0015 -0.403759 -1.88287 0 1.72216e-11 -5.41691e-12 0 0 9.34808e-26
6069 203 0.0015 -0.401942 -1.88373 0 -1.65402e-11 5.23998e-12 0 0 8.83383e-26
7985 267 0.0015 -0.204179 -1.88284 0 2.62363e-12 -5.96942e-12 0 0 1.37024e-26
7984 267 0.0015 -0.201853 -1.88372 0 -2.94744e-12 6.6686e-12 0 0 1.39975e-26
1954 66 0.0015 0.0141981 -1.88304 0 1.41403e-14 9.43186e-15 0 0 1.21694e-26
6002 201 0.0015 0.493952 -1.88275 0 4.38658e-13 1.0816e-12 0 5.99535e-21 7.39433e-27
1477 50 0.0015 0.570222 -1.88304 0 -3.57902e-12 -5.05937e-12 0 0 2.33479e-26
3535 118 0.0015 0.650663 -1.88285 0 3.26749e-12 4.84368e-12 0 0 2.29541e-26
2646 89 0.0015 -0.589516 -1.88064 0 6.9852e-12 -5.97829e-12 0 0 5.60996e-26
6073 203 0.0015 -0.409209 -1.88028 0 1.19075e-12 -9.13331e-14 0 2.48474e-20 4.22004e-27
6072 203 0.0015 -0.407392 -1.88114 0 -6.93544e-12 -2.6612e-12 0 2.48474e-20 7.35887e-27
7988 267 0.0015 -0.211156 -1.8802 0 4.89889e-14 5.01578e-12 0 0 1.45383e-27
7987 267 0.0015 -0.208831 -1.88108 0 -3.84351e-12 -5.25496e-12 0 0 8.2535e-27
7986 267 0.0015 -0.206505 -1.88196 0 5.35524e-12 5.56629e-12 0 0 6.87557e-27
8011 268 0.0015 -0.176367 -1.88159 0 -7.69714e-13 -2.12751e-12 0 0 1.867e-26
10328 345 0.0015 -0.065257 -1.88152 0 -1.99412e-12 7.94968e-12 0 0 5.18584e-26
8044 269 0.0015 0.1534 -1.88043 0 -6.45046e-13 6.43306e-12 0 7.37441e-21 6.29446e-26
10266 343 0.0015 0.421289 -1.88111 0 2.37395e-13 7.54893e-13 0 0 1.26019e-26
1478 50 0.0015 0.572449 -1.88013 0 -1.6685e-12 -1.96012e-12 0 0 2.18371e-26
3534 118 0.0015 0.653201 -1.88093 0 -8.59145e-12 -7.56614e-12 0 0 5.82405e-26
10292 344 0.0015 -0.465124 -1.8785 0 7.4949e-12 5.30563e-13 0 0 2.4748e-26
10291 344 0.0015 -0.4623 -1.87941 0 -5.08598e-12 1.0978e-12 0 0 2.20922e-26
6074 203 0.0015 -0.411025 -1.87942 0 6.00358e-12 7.37899e-12 0 0 1.46155e-27
6075 203 0.0015 -0.412842 -1.87856 0 -3.67576e-12 -9.87358e-12 0 0 2.45967e-27
7990 267 0.0015 -0.215808 -1.87844 0 1.5588e-11 3.78761e-12 0 1.00459e-20 6.46661e-26
7989 267 0.0015 -0.213482 -1.87932 0 -1.03165e-11 -4.56026e-12 0 0 4.82007e-26
10329 345 0.0015 -0.0659339 -1.87841 0 -6.60996e-13 4.69686e-12 0 0 2.4871e-26
1955 66 0.0015 0.0137179 -1.87827 0 -8.87089e-13 7.77194e-12 0 0 4.92576e-26
10201 341 0.0015 0.290108 -1.87875 0 3.74533e-13 -3.20195e-12 0 3.6872e-21 1.95578e-26
3533 118 0.0015 0.655738 -1.87902 0 8.44871e-12 5.38259e-12 0 0 4.72223e-26
2647 89 0.0015 -0.593237 -1.87778 0 -2.43042e-12 1.55105e-12 0 0 2.13802e-26
10294 344 0.0015 -0.470773 -1.87669 0 -4.96638e-12 6.33485e-12 0 0 1.99469e-26
10293 344 0.0015 -0.467948 -1.87759 0 -1.15607e-12 -5.36497e-12 0 0 7.15148e-27
6077 203 0.0015 -0.416475 -1.87683 0 9.74306e-12 -4.9761e-12 0 0 3.43297e-26
6076 203 0.0015 -0.414658 -1.87769 0 -5.93377e-12 6.73984e-12 0 0 2.46977e-26
6034 202 0.0015 -0.327828 -1.87791 0 7.84229e-13 -1.01211e-12 0 0 1.10705e-26
7992 267 0.0015 -0.22046 -1.87668 0 7.25477e-12 -2.20971e-12 0 2.00918e-20 2.44796e-26
7991 267 0.0015 -0.218134 -1.87756 0 -7.75984e-12 -1.2072e-12 0 2.00918e-20 1.91286e-26
10267 343 0.0015 0.42201 -1.87716 0 1.22637e-12 7.48137e-12 0 0 3.96566e-26
1479 50 0.0015 0.574675 -1.87722 0 5.84909e-12 6.09058e-12 0 6.81478e-21 3.58668e-26
3532 118 0.0015 0.658275 -1.8771 0 -5.89738e-12 -2.42607e-12 0 0 1.73644e-26
2648 89 0.0015 -0.596958 -1.87493 0 -2.40022e-12 3.33772e-12 0 0 1.23257e-26
10296 344 0.0015 -0.476421 -1.87487 0 1.14949e-11 -7.13395e-12 0 0 8.26548e-26
10295 344 0.0015 -0.473597 -1.87578 0 3.44327e-13 -3.28839e-13 0 0 2.79962e-26
6080 203 0.0015 -0.421925 -1.87425 0 1.9432e-12 -1.31726e-11 0 0 1.55425e-26
6079 203 0.0015 -0.420108 -1.87511 0 2.79217e-13 4.99978e-12 0 0 6.85709e-27
6078 203 0.0015 -0.418291 -1.87597 0 -5.2929e-12 2.60412e-12 0 0 1.25904e-26
7995 267 0.0015 -0.227437 -1.87404 0 -1.09934e-11 -2.89525e-12 0 0 3.00357e-26
7994 267 0.0015 -0.225111 -1.87492 0 8.80831e-12 3.7752e-12 0 0 1.69861e-26
7993 267 0.0015 -0.222785 -1.8758 0 -9.12495e-12 -2.05834e-13 0 1.00459e-20 2.74287e-26
10330 345 0.0015 -0.0666107 -1.87531 0 2.1541e-12 -1.07326e-11 0 0 5.29627e-26
6003 201 0.0015 0.496967 -1.87498 0 -6.70511e-13 -1.55594e-12 0 5.99535e-21 6.72583e-27
1480 50 0.0015 0.576901 -1.87431 0 -1.99194e-12 4.58385e-14 0 6.81478e-21 2.57494e-26
3531 118 0.0015 0.660812 -1.87519 0 1.22294e-12 2.34562e-13 0 0 7.3414e-27
2649 89 0.0015 -0.600679 -1.87207 0 1.389e-12 -2.84177e-12 0 5.32605e-21 1.09155e-26
10299 344 0.0015 -0.484893 -1.87215 0 4.38618e-12 -6.57586e-12 0 1.68424e-20 1.58867e-26
10298 344 0.0015 -0.482069 -1.87306 0 6.56002e-13 9.39845e-13 0 1.68424e-20 2.05222e-26
10297 344 0.0015 -0.479245 -1.87396 0 -1.14192e-11 6.68813e-12 0 0 8.13496e-26
6082 203 0.0015 -0.425558 -1.87252 0 -3.37124e-12 -2.27278e-11 0 0 1.38762e-26
6081 203 0.0015 -0.423741 -1.87338 0 1.79774e-12 1.87512e-11 0 0 1.25152e-26
7997 267 0.0015 -0.232089 -1.87228 0 -9.69571e-12 -4.80766e-12 0 1.00459e-20 1.93806e-26
7996 267 0.0015 -0.229763 -1.87316 0 1.00715e-11 3.45977e-12 0 0 2.48438e-26
10331 345 0.0015 -0.0672875 -1.8722 0 -3.59212e-12 1.32417e-11 0 0 8.53884e-26
1956 66 0.0015 0.0132378 -1.87349 0 1.30127e-12 -1.10032e-11 0 0 8.19279e-26
8045 269 0.0015 0.152704 -1.87369 0 -3.27799e-13 2.84808e-12 0 3.6872e-21 2.53126e-26
10202 341 0.0015 0.289307 -1.87202 0 -6.94456e-13 6.00124e-12 0 7.37441e-21 3.44966e-26
4531 152 0.0015 0.366216 -1.8733 0 5.26985e-13 -3.2416e-12 0 5.72705e-21 2.6135e-26
10268 343 0.0015 0.422731 -1.8732 0 -2.54982e-12 -1.34468e-11 0 0 1.07902e-25
3530 118 0.0015 0.66335 -1.87327 0 -1.77856e-13 -1.96433e-13 0 0 4.17631e-27
10301 344 0.0015 -0.490541 -1.87033 0 -3.08252e-12 -3.23118e-12 0 0 1.57192e-27
10300 344 0.0015 -0.487717 -1.87124 0 -4.262e-14 6.21028e-12 0 1.68424e-20 7.25818e-27
6084 203 0.0015 -0.429191 -1.8708 0 3.66229e-12 -5.60668e-12 0 0 1.7906e-26
6083 203 0.0015 -0.427374 -1.87166 0 -2.45825e-12 1.84074e-11 0 0 2.89609e-26
6035 202 0.0015 -0.332631 -1.87017 0 -4.71926e-13 6.01835e-13 0 0 1.35505e-26
7999 267 0.0015 -0.23674 -1.87052 0 -4.14115e-12 3.26706e-12 0 1.00459e-20 9.12734e-27
7998 267 0.0015 -0.234415 -1.8714 0 8.79e-12 2.30027e-12 0 1.00459e-20 1.95473e-26
1481 50 0.0015 0.579128 -1.8714 0 -3.77733e-13 -2.30925e-12 0 6.81478e-21 9.43138e-27
3529 118 0.0015 0.665887 -1.87136 0 7.8721e-12 5.46952e-12 0 0 5.77763e-26
2650 89 0.0015 -0.6044 -1.86922 0 1.99286e-12 -3.43674e-13 0 5.32605e-21 3.89656e-27
10303 344 0.0015 -0.49619 -1.86852 0 -4.11249e-12 3.69367e-12 0 0 1.10853e-26
10302 344 0.0015 -0.493366 -1.86943 0 2.97275e-12 -4.75154e-13 0 0 3.95569e-27
6087 203 0.0015 -0.434641 -1.86821 0 -3.18924e-12 -6.24152e-12 0 0 1.4497e-26
6085 203 0.0015 -0.431008 -1.86994 0 -1.40707e-12 -2.51498e-12 0 0 1.28328e-29
6086 203 0.0015 -0.432824 -1.86908 0 5.45194e-12 2.51625e-12 0 0 7.67417e-27
8001 267 0.0015 -0.241392 -1.86876 0 -3.41555e-12 5.40147e-12 0 0 9.88511e-27
8000 267 0.0015 -0.239066 -1.86964 0 2.90033e-12 -7.40858e-12 0 0 1.04735e-26
8012 268 0.0015 -0.171924 -1.86923 0 1.26943e-12 3.49845e-12 0 1.90242e-21 2.64358e-26
10332 345 0.0015 -0.0679644 -1.86909 0 3.04885e-12 -7.7244e-12 0 0 5.70536e-26
1957 66 0.0015 0.0127576 -1.86871 0 -8.59442e-13 6.49178e-12 0 0 4.05185e-26
10269 343 0.0015 0.423451 -1.86924 0 2.86791e-12 1.48638e-11 0 0 1.28506e-25
1482 50 0.0015 0.581354 -1.86848 0 -5.44673e-12 -6.46905e-12 0 0 5.94168e-26
3528 118 0.0015 0.668424 -1.86944 0 -8.55741e-12 -7.11548e-12 0 0 6.43849e-26
2651 89 0.0015 -0.608121 -1.86636 0 -3.35564e-12 2.05931e-12 0 5.32605e-21 1.01258e-26
10305 344 0.0015 -0.501838 -1.8667 0 1.94175e-12 1.60784e-12 0 1.68424e-20 4.78471e-27
10304 344 0.0015 -0.499014 -1.86761 0 2.97657e-12 -3.8442e-12 0 1.68424e-20 8.69246e-27
6089 203 0.0015 -0.438274 -1.86649 0 7.28982e-13 -1.02061e-11 0 0 7.12034e-27
6088 203 0.0015 -0.436457 -1.86735 0 -9.04026e-13 1.16563e-11 0 0 9.8277e-27
8004 267 0.0015 -0.248369 -1.86612 0 3.56931e-12 4.71314e-12 0 1.00459e-20 1.0204e-27
8003 267 0.0015 -0.246044 -1.867 0 -1.51744e-12 -2.98412e-12 0 1.00459e-20 1.05499e-27
8002 267 0.0015 -0.243718 -1.86788 0 1.27814e-12 3.25382e-13 0 0 2.43614e-27
8046 269 0.0015 0.152008 -1.86695 0 5.71595e-13 -5.36184e-12 0 0 3.03969e-26
6004 201 0.0015 0.499982 -1.86721 0 -5.23276e-13 -1.70875e-12 0 5.99535e-21 7.25939e-27
3527 118 0.0015 0.670962 -1.86752 0 -5.26834e-12 -1.56867e-12 0 0 7.06334e-26
10307 344 0.0015 -0.507486 -1.86489 0 -3.38595e-12 5.37981e-13 0 1.68424e-20 9.44243e-27
10306 344 0.0015 -0.504662 -1.8658 0 -2.42655e-12 -2.34611e-13 0 1.68424e-20 4.1399e-27
6090 203 0.0015 -0.440091 -1.86563 0 -1.12368e-12 3.97318e-12 0 0 4.1269e-27
8006 267 0.0015 -0.253021 -1.86436 0 6.66586e-12 1.04304e-11 0 1.00459e-20 3.73408e-27
8005 267 0.0015 -0.250695 -1.86524 0 -4.49035e-12 -9.4243e-12 0 1.00459e-20 3.15206e-28
10333 345 0.0015 -0.0686412 -1.86599 0 -6.36896e-13 -1.97556e-12 0 0 3.39757e-27
10203 341 0.0015 0.288506 -1.8653 0 1.47046e-13 -1.39979e-12 0 1.10616e-20 1.86809e-26
4532 152 0.0015 0.364868 -1.86469 0 -6.05504e-13 3.50665e-12 0 1.14541e-20 2.6317e-26
10270 343 0.0015 0.424172 -1.86529 0 -3.22737e-12 -1.66596e-11 0 1.24237e-20 1.65207e-25
1483 50 0.0015 0.58358 -1.86557 0 4.01595e-12 5.33595e-12 0 6.81478e-21 5.95179e-26
3526 118 0.0015 0.673499 -1.86561 0 1.81125e-11 1.1114e-11 0 0 2.06297e-25
2652 89 0.0015 -0.611842 -1.86351 0 3.54468e-12 -2.38572e-12 0 0 1.18545e-26
10310 344 0.0015 -0.515959 -1.86217 0 -1.26576e-12 5.0097e-13 0 1.68424e-20 1.22353e-26
10309 344 0.0015 -0.513134 -1.86307 0 3.80188e-12 -1.29485e-12 0 3.36849e-20 9.47224e-27
10308 344 0.0015 -0.51031 -1.86398 0 2.80502e-12 -5.51752e-14 0 3.36849e-20 9.84361e-27
6036 202 0.0015 -0.337434 -1.86244 0 -2.89636e-12 4.66899e-12 0 0 5.00908e-26
8008 267 0.0015 -0.257673 -1.8626 0 6.09493e-12 3.91436e-12 0 1.00459e-20 6.91016e-27
8007 267 0.0015 -0.255347 -1.86348 0 -6.46245e-12 -6.1068e-12 0 1.00459e-20 5.40128e-27
10334 345 0.0015 -0.0693181 -1.86288 0 3.75396e-13 7.41098e-13 0 0 4.89205e-27
1958 66 0.0015 0.0122775 -1.86393 0 2.29438e-13 -9.97404e-13 0 0 1.81295e-27
1484 50 0.0015 0.585807 -1.86266 0 3.16428e-12 2.74627e-12 0 1.36296e-20 1.12155e-26
3525 118 0.0015 0.676036 -1.86369 0 -1.81125e-11 -1.1114e-11 0 0 2.06297e-25
2653 89 0.0015 -0.615563 -1.86065 0 -3.83664e-13 -2.6732e-13 0 0 1.05001e-26
10312 344 0.0015 -0.521607 -1.86035 0 -2.82786e-12 -1.17645e-12 0 0 9.99129e-27
10311 344 0.0015 -0.518783 -1.86126 0 -2.78521e-12 1.0144e-12 0 0 3.99216e-27
8010 267 0.0015 -0.262324 -1.86085 0 5.74025e-12 4.14929e-13 0 0 1.88376e-26
8009 267 0.0015 -0.259998 -1.86172 0 -9.47344e-12 -2.52491e-12 0 0 2.40435e-26
8047 269 0.0015 0.151313 -1.86021 0 -8.936e-14 8.9987e-13 0 0 7.58309e-27
10271 343 0.0015 0.424893 -1.86133 0 2.83254e-12 1.3355e-11 0 1.24237e-20 1.24981e-25
3524 118 0.0015 0.678573 -1.86178 0 5.26834e-12 1.56867e-12 0 0 7.06334e-26
10314 344 0.0015 -0.527255 -1.85854 0 -1.62897e-12 -2.48269e-12 0 0 2.63305e-27
10313 344 0.0015 -0.524431 -1.85944 0 5.7942e-12 1.91382e-12 0 0 1.12628e-26
10335 345 0.0015 -0.0699949 -1.85978 0 -1.00373e-12 2.40606e-12 0 0 2.90556e-27
1959 66 0.0015 0.0117974 -1.85915 0 2.08602e-13 -2.73509e-12 0 5.20104e-21 9.04916e-27
4771 160 0.0015 0.0785585 -1.85825 0 -9.50898e-14 3.32233e-12 0 0 2.82346e-26
10204 341 0.0015 0.287705 -1.85857 0 1.03635e-12 -8.69871e-12 0 1.10616e-20 1.05409e-25
6005 201 0.0015 0.502997 -1.85945 0 -2.25152e-13 -1.88537e-13 0 5.99535e-21 1.67803e-26
1485 50 0.0015 0.588033 -1.85975 0 6.24846e-14 2.75758e-12 0 2.04443e-20 4.02739e-26
3523 118 0.0015 0.681111 -1.85986 0 8.55741e-12 7.11548e-12 0 0 6.43849e-26
2654 89 0.0015 -0.619284 -1.8578 0 -3.76445e-12 3.55734e-12 0 0 1.83609e-26
10316 344 0.0015 -0.532903 -1.85672 0 4.05324e-12 -2.34449e-12 0 0 8.95519e-27
10315 344 0.0015 -0.530079 -1.85763 0 -2.90109e-12 2.53924e-12 0 0 6.69266e-27
8013 268 0.0015 -0.167482 -1.85688 0 -3.50568e-13 -9.51378e-13 0 3.80484e-21 8.48903e-27
10336 345 0.0015 -0.0706718 -1.85667 0 1.76256e-13 1.92099e-13 0 0 3.12926e-27
4533 152 0.0015 0.36352 -1.85607 0 -5.09564e-13 3.59051e-12 0 1.14541e-20 3.70411e-26
10272 343 0.0015 0.425614 -1.85738 0 -8.77953e-13 -1.9604e-12 0 1.24237e-20 1.89168e-26
1486 50 0.0015 0.59026 -1.85684 0 -6.24846e-14 -2.75758e-12 0 2.04443e-20 4.02739e-26
3522 118 0.0015 0.683648 -1.85795 0 -7.8721e-12 -5.46952e-12 0 0 5.77763e-26
3521 118 0.0015 0.686185 -1.85603 0 1.77856e-13 1.96433e-13 0 0 4.17631e-27
2655 89 0.0015 -0.623004 -1.85494 0 4.18017e-12 -3.64657e-12 0 0 2.04903e-26
10318 344 0.0015 -0.538552 -1.85491 0 6.99074e-13 5.02279e-12 0 0 4.89197e-28
10317 344 0.0015 -0.535727 -1.85581 0 -1.99338e-12 -5.35156e-13 0 0 2.80577e-27
6037 202 0.0015 -0.342237 -1.85471 0 2.61848e-12 -4.15236e-12 0 0 4.73688e-26
1960 66 0.0015 0.0113172 -1.85437 0 -8.25051e-14 1.76768e-12 0 5.20104e-21 9.94914e-27
3520 118 0.0015 0.688722 -1.85412 0 -1.22294e-12 -2.34562e-13 0 0 7.3414e-27
2656 89 0.0015 -0.626725 -1.85209 0 -6.42708e-12 5.19483e-12 0 5.32605e-21 5.30065e-26
10320 344 0.0015 -0.5442 -1.85309 0 2.25991e-12 1.42358e-12 0 0 2.42657e-27
10319 344 0.0015 -0.541376 -1.854 0 -2.6007e-12 -4.97819e-12 0 0 2.90615e-27
10337 345 0.0015 -0.0713486 -1.85356 0 1.14503e-12 -3.07383e-12 0 0 4.74062e-27
8048 269 0.0015 0.150617 -1.85348 0 -2.40097e-14 1.63629e-13 0 0 2.49951e-27
10273 343 0.0015 0.426335 -1.85342 0 4.77471e-13 8.42166e-13 0 0 1.06079e-26
1487 50 0.0015 0.592486 -1.85392 0 -3.16428e-12 -2.74627e-12 0 1.36296e-20 1.12155e-26
3519 118 0.0015 0.69126 -1.8522 0 5.89738e-12 2.42607e-12 0 0 1.73644e-26
10338 345 0.0015 -0.0720254 -1.85046 0 -6.57024e-13 3.78366e-13 0 0 4.57025e-27
10205 341 0.0015 0.286904 -1.85184 0 -1.89922e-12 1.61299e-11 0 7.37441e-21 2.50437e-25
6006 201 0.0015 0.506013 -1.85168 0 1.60364e-12 3.85302e-12 0 5.99535e-21 2.01624e-26
1488 50 0.0015 0.594712 -1.85101 0 -4.01595e-12 -5.33595e-12 0 6.81478e-21 5.95179e-26
3518 118 0.0015 0.693797 -1.85028 0 -8.44871e-12 -5.38259e-12 0 0 4.72223e-26
2657 89 0.0015 -0.630446 -1.84923 0 7.5462e-12 -6.01984e-12 0 5.32605e-21 6.39255e-26
1961 66 0.0015 0.0108371 -1.84959 0 -1.02798e-12 8.85209e-12 0 5.20104e-21 8.79641e-26
4772 160 0.0015 0.0782973 -1.84905 0 2.01374e-13 -7.01762e-12 0 0 6.31644e-26
10274 343 0.0015 0.427056 -1.84946 0 -2.54354e-13 -1.09867e-12 0 0 9.86431e-27
1489 50 0.0015 0.596939 -1.8481 0 5.44673e-12 6.46905e-12 0 0 5.94168e-26
3517 118 0.0015 0.696334 -1.84837 0 8.59145e-12 7.56614e-12 0 0 5.82405e-26
2658 89 0.0015 -0.634167 -1.84638 0 -4.22965e-12 3.4402e-12 0 5.32605e-21 2.18739e-26
6038 202 0.0015 -0.34704 -1.84697 0 8.59051e-13 -1.43903e-12 0 0 1.43951e-26
10339 345 0.0015 -0.0727023 -1.84735 0 1.93701e-13 -1.62464e-12 0 0 9.31899e-27
8049 269 0.0015 0.149922 -1.84674 0 -2.28224e-13 2.06753e-12 0 3.6872e-21 4.43724e-27
6541 219 0.0015 0.213251 -1.84656 0 3.17601e-13 -4.22022e-12 0 0 3.5368e-26
4534 152 0.0015 0.362172 -1.84745 0 5.84651e-13 -3.79089e-12 0 1.14541e-20 3.68692e-26
3516 118 0.0015 0.698871 -1.84645 0 -3.26749e-12 -4.84368e-12 0 0 2.29541e-26
8014 268 0.0015 -0.163039 -1.84452 0 -1.21588e-13 -3.43684e-13 0 3.80484e-21 7.46977e-28
10340 345 0.0015 -0.0733791 -1.84424 0 -1.01756e-12 8.29222e-12 0 1.57149e-20 3.30871e-26
1962 66 0.0015 0.010357 -1.84481 0 9.40636e-13 -8.19686e-12 0 0 8.70772e-26
10206 341 0.0015 0.286103 -1.84511 0 1.35654e-12 -1.16386e-11 0 3.6872e-21 1.63801e-25
10275 343 0.0015 0.427777 -1.84551 0 -1.50393e-12 -8.22655e-12 0 0 5.55942e-26
1490 50 0.0015 0.599165 -1.84519 0 3.77733e-13 2.30925e-12 0 6.81478e-21 9.43138e-27
3515 118 0.0015 0.701409 -1.84454 0 3.43146e-12 5.16297e-12 0 0 2.59459e-26
2659 89 0.0015 -0.637888 -1.84352 0 2.59242e-13 -5.91196e-13 0 0 5.74359e-27
6007 201 0.0015 0.509028 -1.84391 0 -1.10519e-12 -2.67384e-12 0 5.99535e-21 1.1938e-26
1491 50 0.0015 0.601391 -1.84228 0 1.99194e-12 -4.58385e-14 0 6.81478e-21 2.57494e-26
3514 118 0.0015 0.703946 -1.84262 0 -4.35768e-12 -4.55293e-12 0 1.57149e-20 2.63617e-26
2660 89 0.0015 -0.641609 -1.84066 0 1.31915e-12 -2.32413e-13 0 0 1.7981e-27
10341 345 0.0015 -0.074056 -1.84114 0 1.06628e-12 -8.58268e-12 0 3.14298e-20 3.47025e-26
1963 66 0.0015 0.00987681 -1.84004 0 3.85106e-13 -4.58595e-12 0 0 3.04491e-26
10276 343 0.0015 0.428498 -1.84155 0 1.50393e-12 8.22655e-12 0 0 5.55942e-26
3513 118 0.0015 0.706483 -1.84071 0 -4.2095e-13 -1.00596e-13 0 1.57149e-20 1.89813e-27
6039 202 0.0015 -0.351842 -1.83924 0 -2.20516e-12 3.56378e-12 0 0 2.24232e-26
10342 345 0.0015 -0.0747328 -1.83803 0 -1.71359e-12 1.05626e-11 0 4.71447e-20 5.81017e-26
4773 160 0.0015 0.0780361 -1.83985 0 -1.32689e-13 4.58452e-12 0 0 3.69526e-26
8050 269 0.0015 0.149226 -1.84 0 4.87497e-13 -4.19558e-12 0 3.6872e-21 1.8957e-26
6542 219 0.0015 0.21269 -1.83947 0 -4.48328e-13 6.09803e-12 0 3.51396e-21 4.23641e-26
10207 341 0.0015 0.285302 -1.83839 0 -4.32659e-14 4.21519e-13 0 0 2.58923e-26
4535 152 0.0015 0.360823 -1.83883 0 3.01527e-13 -1.94545e-12 0 1.14541e-20 8.79693e-27
1492 50 0.0015 0.603618 -1.83936 0 -5.84909e-12 -6.09058e-12 0 6.81478e-21 3.58668e-26
3512 118 0.0015 0.70902 -1.83879 0 -2.40912e-12 -2.23021e-12 0 1.57149e-20 1.90478e-26
2661 89 0.0015 -0.64533 -1.83781 0 2.5892e-12 -3.06409e-12 0 0 2.01507e-26
10277 343 0.0015 0.429219 -1.8376 0 2.54354e-13 1.09867e-12 0 0 9.86431e-27
6008 201 0.0015 0.512043 -1.83614 0 1.91782e-12 4.9584e-12 0 0 4.95957e-26
1493 50 0.0015 0.605844 -1.83645 0 1.6685e-12 1.96012e-12 0 0 2.18371e-26
3511 118 0.0015 0.711558 -1.83688 0 3.4305e-12 2.8952e-12 0 0 1.77424e-26
2662 89 0.0015 -0.649051 -1.83495 0 -2.55328e-12 3.1399e-12 0 0 2.01505e-26
10343 345 0.0015 -0.0754097 -1.83493 0 2.56159e-12 -1.38435e-11 0 4.71447e-20 8.77024e-26
1964 66 0.0015 0.00939668 -1.83526 0 -3.34765e-13 4.15422e-12 0 0 3.09015e-26
2663 89 0.0015 -0.652772 -1.8321 0 -1.46717e-12 3.88928e-13 0 5.32605e-21 2.57211e-27
10171 340 0.0015 -0.234195 -1.83312 0 -8.96971e-13 1.17526e-12 0 0 4.74011e-27
8015 268 0.0015 -0.158597 -1.83216 0 -4.45069e-13 -1.23024e-12 0 1.90242e-21 5.51985e-27
8051 269 0.0015 0.14853 -1.83326 0 -9.46743e-13 8.50414e-12 0 3.6872e-21 7.63355e-26
6543 219 0.0015 0.212128 -1.83239 0 -2.00076e-13 2.39544e-12 0 7.02791e-21 4.3271e-26
10278 343 0.0015 0.429939 -1.83364 0 -4.77471e-13 -8.42166e-13 0 0 1.06079e-26
1494 50 0.0015 0.60807 -1.83354 0 3.57902e-12 5.05937e-12 0 0 2.33479e-26
6040 202 0.0015 -0.356645 -1.83151 0 8.08214e-13 -1.22209e-12 0 0 9.47547e-27
10344 345 0.0015 -0.0760865 -1.83182 0 5.72428e-13 -9.82611e-13 0 3.14298e-20 9.1657e-26
1965 66 0.0015 0.00891654 -1.83048 0 -5.01859e-13 3.87521e-12 0 5.20104e-21 1.50086e-26
4774 160 0.0015 0.0777749 -1.83066 0 -4.4515e-14 1.64904e-12 0 0 1.85027e-26
10208 341 0.0015 0.284501 -1.83166 0 -9.44911e-13 8.10398e-12 0 0 7.32205e-26
4536 152 0.0015 0.359475 -1.83021 0 -4.31903e-13 2.62483e-12 0 1.71811e-20 1.01711e-26
1495 50 0.0015 0.610297 -1.83063 0 -2.46976e-12 -3.99808e-12 0 0 2.03573e-26
2664 89 0.0015 -0.656493 -1.82924 0 -1.72891e-14 -7.96867e-14 0 2.13042e-20 5.0184e-27
10345 345 0.0015 -0.0767633 -1.82871 0 -2.5679e-12 1.06382e-11 0 3.14298e-20 6.18289e-26
10279 343 0.0015 0.43066 -1.82968 0 8.77953e-13 1.9604e-12 0 1.24237e-20 1.89168e-26
6009 201 0.0015 0.515058 -1.82837 0 -3.1467e-12 -8.3395e-12 0 0 9.20019e-26
2665 89 0.0015 -0.660213 -1.82639 0 2.12791e-12 -1.28311e-12 0 2.13042e-20 4.01985e-27
10172 340 0.0015 -0.238704 -1.82673 0 1.11445e-12 -1.36715e-12 0 6.39056e-21 4.91303e-27
8052 269 0.0015 0.147835 -1.82652 0 7.57383e-13 -6.93068e-12 0 0 6.3935e-26
1496 50 0.0015 0.612523 -1.82772 0 -1.70633e-12 -1.85546e-12 0 0 7.57884e-27
10346 345 0.0015 -0.0774402 -1.82561 0 -1.16519e-13 4.22794e-13 0 1.57149e-20 2.09303e-26
1966 66 0.0015 0.0084364 -1.8257 0 5.05652e-13 -3.9887e-12 0 5.20104e-21 1.52093e-26
6544 219 0.0015 0.211567 -1.8253 0 6.83703e-13 -9.09103e-12 0 1.05419e-20 8.2353e-26
10209 341 0.0015 0.2837 -1.82493 0 1.08685e-12 -9.14699e-12 0 3.6872e-21 8.48217e-26
10280 343 0.0015 0.431381 -1.82573 0 -2.83254e-12 -1.3355e-11 0 1.24237e-20 1.24981e-25
1497 50 0.0015 0.614749 -1.8248 0 1.58458e-12 1.95042e-12 0 0 7.5782e-27
2666 89 0.0015 -0.663934 -1.82353 0 -6.40462e-14 8.55219e-14 0 1.59781e-20 2.86632e-27
6041 202 0.0015 -0.361448 -1.82377 0 8.58787e-13 -1.51692e-12 0 0 4.84508e-27
10347 345 0.0015 -0.078117 -1.8225 0 1.68701e-12 -5.9892e-12 0 1.57149e-20 1.75659e-26
2667 89 0.0015 -0.667655 -1.82068 0 -2.55124e-12 1.50213e-12 0 0 6.20793e-27
10173 340 0.0015 -0.243212 -1.82034 0 -4.48065e-14 -7.14751e-14 0 1.27811e-20 3.88035e-28
1967 66 0.0015 0.00795626 -1.82092 0 2.5625e-13 -3.20696e-12 0 5.20104e-21 2.13739e-26
4775 160 0.0015 0.0775136 -1.82146 0 9.76944e-14 -3.56008e-12 0 0 1.91503e-26
4537 152 0.0015 0.358127 -1.82159 0 2.27496e-13 -1.28008e-12 0 1.71811e-20 2.10148e-27
10281 343 0.0015 0.432102 -1.82177 0 3.22737e-12 1.66596e-11 0 1.24237e-20 1.65207e-25
6010 201 0.0015 0.518074 -1.8206 0 1.93142e-12 5.18123e-12 0 0 4.69474e-26
1498 50 0.0015 0.616976 -1.82189 0 -8.10362e-13 -4.19235e-13 0 0 1.13175e-27
8016 268 0.0015 -0.154154 -1.81981 0 5.62217e-13 1.55114e-12 0 1.90242e-21 6.14666e-27
10348 345 0.0015 -0.0787939 -1.81939 0 -1.01363e-12 3.40999e-12 0 0 6.63949e-27
8053 269 0.0015 0.147139 -1.81978 0 7.85708e-14 -8.51862e-13 0 0 1.17543e-26
6545 219 0.0015 0.211005 -1.81821 0 -2.67218e-13 4.31443e-12 0 1.05419e-20 4.65888e-26
10210 341 0.0015 0.282899 -1.8182 0 -2.25152e-13 1.5476e-12 0 3.6872e-21 2.91961e-26
1499 50 0.0015 0.619202 -1.81898 0 -2.02403e-13 -1.13964e-12 0 0 5.41598e-27
2668 89 0.0015 -0.671376 -1.81782 0 1.59437e-12 -4.38607e-13 0 0 5.13462e-27
6042 202 0.0015 -0.366251 -1.81604 0 -3.22599e-13 5.92418e-13 0 2.74394e-21 5.43946e-27
10349 345 0.0015 -0.0794707 -1.81629 0 -1.04936e-12 4.3649e-12 0 0 2.73795e-26
1968 66 0.0015 0.00747613 -1.81614 0 -1.05315e-12 1.10079e-11 0 5.20104e-21 8.83308e-26
10282 343 0.0015 0.432823 -1.81781 0 -2.86791e-12 -1.48638e-11 0 0 1.28506e-25
1500 50 0.0015 0.621428 -1.81607 0 1.08502e-12 1.76579e-12 0 0 4.3284e-27
2669 89 0.0015 -0.675097 -1.81497 0 4.12709e-12 -3.90196e-12 0 0 3.59805e-26
5941 199 0.0015 0.740778 -1.81551 0 -1.20888e-12 -4.98907e-12 0 0 7.03144e-26
2670 89 0.0015 -0.678818 -1.81211 0 -4.02906e-12 3.3555e-12 0 0 3.5761e-26
10174 340 0.0015 -0.24772 -1.81396 0 -1.49094e-13 2.4285e-13 0 1.27811e-20 2.17117e-28
10350 345 0.0015 -0.0801475 -1.81318 0 1.2685e-12 -5.33139e-12 0 0 2.65122e-26
4776 160 0.0015 0.0772524 -1.81226 0 -3.37621e-14 1.38504e-12 0 0 3.00768e-27
8054 269 0.0015 0.146443 -1.81304 0 -1.80641e-13 1.72308e-12 0 0 8.95359e-27
4538 152 0.0015 0.356779 -1.81297 0 8.99328e-14 -6.29188e-13 0 1.71811e-20 4.08903e-27
10283 343 0.0015 0.433544 -1.81386 0 2.54982e-12 1.34468e-11 0 0 1.07902e-25
6011 201 0.0015 0.521089 -1.81283 0 -7.74654e-13 -1.96106e-12 0 5.99535e-21 5.22321e-27
1969 66 0.0015 0.00699599 -1.81136 0 8.96292e-13 -9.54847e-12 0 5.20104e-21 7.5785e-26
6546 219 0.0015 0.210443 -1.81113 0 -2.50578e-13 2.0992e-12 0 1.05419e-20 5.59049e-27
10211 341 0.0015 0.282098 -1.81148 0 -3.57898e-13 3.49902e-12 0 3.6872e-21 1.17041e-26
6043 202 0.0015 -0.371054 -1.8083 0 1.70573e-13 -2.66935e-13 0 5.48788e-21 3.38413e-27
10284 343 0.0015 0.434265 -1.8099 0 -1.22637e-12 -7.48137e-12 0 0 3.96566e-26
10175 340 0.0015 -0.252228 -1.80757 0 5.46457e-13 -8.11324e-13 0 6.39056e-21 2.20985e-27
8017 268 0.0015 -0.149712 -1.80745 0 2.68593e-13 7.47842e-13 0 1.90242e-21 6.05231e-27
1970 66 0.0015 0.00651585 -1.80658 0 -9.46835e-14 1.13624e-12 0 5.20104e-21 1.04928e-26
8055 269 0.0015 0.145748 -1.8063 0 -1.94662e-13 1.89088e-12 0 0 4.49978e-27
5942 199 0.0015 0.743061 -1.80618 0 1.2233e-12 5.1778e-12 0 2.60052e-21 7.04075e-26
6547 219 0.0015 0.209882 -1.80404 0 3.33188e-13 -3.54781e-12 0 7.02791e-21 1.26591e-26
10212 341 0.0015 0.281297 -1.80475 0 -1.53765e-13 5.0352e-13 0 3.6872e-21 1.36167e-26
4539 152 0.0015 0.35543 -1.80435 0 -4.44851e-13 2.80539e-12 0 1.71811e-20 1.00559e-26
10285 343 0.0015 0.434986 -1.80595 0 -2.37395e-13 -7.54893e-13 0 0 1.26019e-26