ITEM: TIMESTEP
93310
ITEM: NUMBER OF ATOMS
10500
ITEM: BOX BOUNDS pp pp pp
-1.0249999999999999e+00 1.0249999999999999e+00
-2.0000000000000000e+00 2.0000000000000000e+00
-5.0000000000000003e-02 5.0000000000000003e-02
ITEM: ATOMS id type radius x y z fx fy fz c_bendingE c_stretchingE
10321 345 0.0015 -0.0605191 -1.90326 0 2.64605e-12 -1.28538e-11 0 0 1.52068e-25
6031 202 0.0015 -0.31342 -1.90111 0 -1.2544e-12 1.98124e-12 0 0 1.39044e-26
10322 345 0.0015 -0.061196 -1.90016 0 -2.95292e-12 1.45731e-11 0 0 1.54757e-25
8041 269 0.0015 0.155487 -1.90065 0 5.51719e-13 -5.19326e-12 0 0 5.13268e-26
10261 343 0.0015 0.417684 -1.90089 0 4.44212e-13 3.38435e-12 0 0 1.29825e-26
1471 50 0.0015 0.556864 -1.90052 0 -1.82002e-12 -2.30081e-12 0 0 8.76053e-27
10323 345 0.0015 -0.0618728 -1.89705 0 -5.37774e-13 2.91973e-12 0 1.57149e-20 2.23013e-26
1951 66 0.0015 0.0156385 -1.89738 0 -1.98195e-13 1.67666e-12 0 0 3.80169e-27
10262 343 0.0015 0.418405 -1.89694 0 -1.8539e-12 -1.27449e-11 0 0 1.12983e-25
1472 50 0.0015 0.559091 -1.8976 0 2.1997e-12 1.91777e-12 0 0 8.76606e-27
2641 89 0.0015 -0.570912 -1.89491 0 -6.19683e-13 5.78301e-13 0 0 9.27342e-28
1473 50 0.0015 0.561317 -1.89469 0 -3.74993e-12 -2.74523e-12 0 0 2.092e-26
2642 89 0.0015 -0.574633 -1.89206 0 -8.77519e-13 2.96976e-13 0 0 4.78451e-27
6032 202 0.0015 -0.318223 -1.89337 0 2.06933e-12 -3.22198e-12 0 0 1.94732e-26
10324 345 0.0015 -0.0625496 -1.89394 0 2.10918e-12 -1.03697e-11 0 1.57149e-20 5.00251e-26
1952 66 0.0015 0.0151583 -1.8926 0 9.10257e-13 -8.06987e-12 0 0 5.90023e-26
8042 269 0.0015 0.154791 -1.89391 0 -7.01475e-13 6.31671e-12 0 0 5.37421e-26
10263 343 0.0015 0.419126 -1.89298 0 2.96025e-12 1.87945e-11 0 1.24237e-20 2.02071e-25
3540 118 0.0015 0.637977 -1.89243 0 -2.75699e-12 -2.44857e-12 0 0 1.19313e-26
6061 203 0.0015 -0.387409 -1.89062 0 -5.92753e-12 -2.92918e-12 0 0 9.38792e-27
10325 345 0.0015 -0.0632265 -1.89084 0 -2.32377e-12 9.64933e-12 0 1.57149e-20 4.49295e-26
10231 342 0.0015 0.215 -1.89 0 -2.75902e-12 0 0 0 1.45828e-27
10232 342 0.0015 0.21569 -1.89 0 4.60029e-12 0 0 0 2.1076e-27
10233 342 0.0015 0.216379 -1.89 0 -4.09364e-12 0 0 0 1.62081e-27
10234 342 0.0015 0.217069 -1.89 0 6.51979e-12 0 0 0 4.46088e-27
10235 342 0.0015 0.217759 -1.89 0 -1.13734e-11 0 0 0 1.31616e-26
10236 342 0.0015 0.218448 -1.89 0 1.26051e-11 0 0 0 1.54659e-26
10237 342 0.0015 0.219138 -1.89 0 -1.13739e-11 0 0 0 1.24037e-26
10238 342 0.0015 0.219828 -1.89 0 1.51771e-11 0 0 0 2.31882e-26
10239 342 0.0015 0.220517 -1.89 0 -2.003e-11 0 0 0 3.86246e-26
10240 342 0.0015 0.221207 -1.89 0 2.09718e-11 0 0 0 4.21511e-26
10241 342 0.0015 0.221897 -1.89 0 -2.02836e-11 0 0 0 3.94132e-26
10242 342 0.0015 0.222586 -1.89 0 2.28917e-11 0 0 0 5.09522e-26
10243 342 0.0015 0.223276 -1.89 0 -2.57527e-11 0 0 0 6.35275e-26
10244 342 0.0015 0.223966 -1.89 0 2.4521e-11 0 0 0 5.77538e-26
10245 342 0.0015 0.224655 -1.89 0 -2.28919e-11 0 0 0 5.02061e-26
10246 342 0.0015 0.225345 -1.89 0 2.28919e-11 0 0 0 5.02061e-26
10247 342 0.0015 0.226034 -1.89 0 -2.4521e-11 0 0 0 5.77538e-26
10248 342 0.0015 0.226724 -1.89 0 2.57527e-11 0 0 0 6.35275e-26
10249 342 0.0015 0.227414 -1.89 0 -2.28917e-11 0 0 0 5.09522e-26
10250 342 0.0015 0.228103 -1.89 0 2.02836e-11 0 0 0 3.94132e-26
10251 342 0.0015 0.228793 -1.89 0 -2.09718e-11 0 0 0 4.21511e-26
10252 342 0.0015 0.229483 -1.89 0 2.003e-11 0 0 0 3.86246e-26
10253 342 0.0015 0.230172 -1.89 0 -1.51771e-11 0 0 0 2.31882e-26
10254 342 0.0015 0.230862 -1.89 0 1.13739e-11 0 0 0 1.24037e-26
10255 342 0.0015 0.231552 -1.89 0 -1.26051e-11 0 0 0 1.54659e-26
10256 342 0.0015 0.232241 -1.89 0 1.13734e-11 0 0 0 1.31616e-26
10257 342 0.0015 0.232931 -1.89 0 -6.51979e-12 0 0 0 4.46088e-27
10258 342 0.0015 0.233621 -1.89 0 4.09364e-12 0 0 0 1.62081e-27
10259 342 0.0015 0.23431 -1.89 0 -4.60029e-12 0 0 0 2.1076e-27
10260 342 0.0015 0.235 -1.89 0 2.75902e-12 0 0 0 1.45828e-27
6001 201 0.0015 0.490936 -1.89052 0 2.03278e-12 5.22329e-12 0 0 7.2718e-26
1474 50 0.0015 0.563543 -1.89178 0 6.37362e-12 6.97842e-12 0 0 4.51903e-26
3539 118 0.0015 0.640514 -1.89051 0 4.04238e-12 3.97234e-12 0 1.57149e-20 1.52685e-26
2643 89 0.0015 -0.578354 -1.8892 0 1.78459e-12 -7.80189e-13 0 0 3.89486e-27
6063 203 0.0015 -0.391043 -1.8889 0 -7.46895e-12 -1.2571e-11 0 2.48474e-20 4.79317e-27
6064 203 0.0015 -0.392859 -1.88804 0 1.12788e-11 7.81959e-12 0 2.48474e-20 1.37429e-26
6062 203 0.0015 -0.389226 -1.88976 0 8.46572e-12 1.12582e-11 0 0 1.02986e-26
10264 343 0.0015 0.419847 -1.88903 0 -2.22617e-12 -1.26647e-11 0 1.24237e-20 1.14231e-25
1475 50 0.0015 0.56577 -1.88887 0 -8.06602e-13 -2.34538e-12 0 0 3.07916e-26
3538 118 0.0015 0.643052 -1.8886 0 -1.47764e-12 -2.64368e-12 0 1.57149e-20 3.94305e-27
2644 89 0.0015 -0.582074 -1.88635 0 1.17203e-12 -1.26349e-12 0 0 4.5892e-27
6066 203 0.0015 -0.396492 -1.88631 0 7.49673e-12 1.64204e-11 0 0 4.18322e-27
6065 203 0.0015 -0.394676 -1.88717 0 -8.18485e-12 -1.22629e-11 0 2.48474e-20 1.22382e-26
7981 267 0.0015 -0.194876 -1.88635 0 3.47e-13 -1.43073e-12 0 0 4.76605e-28
10326 345 0.0015 -0.0639033 -1.88773 0 1.34076e-12 -4.57504e-12 0 0 1.49502e-26
1953 66 0.0015 0.0146782 -1.88782 0 -1.32214e-12 1.18425e-11 0 0 9.53096e-26
8043 269 0.0015 0.154095 -1.88717 0 8.80315e-14 -2.8433e-13 0 3.6872e-21 3.74641e-27
3537 118 0.0015 0.645589 -1.88668 0 1.02283e-13 2.51725e-12 0 1.57149e-20 1.12956e-27
6068 203 0.0015 -0.400126 -1.88459 0 -2.07141e-12 1.01037e-11 0 0 1.56968e-26
6067 203 0.0015 -0.398309 -1.88545 0 -7.16387e-12 -1.32271e-11 0 0 2.35871e-27
6033 202 0.0015 -0.323025 -1.88564 0 -2.0158e-13 1.78639e-13 0 2.74394e-21 9.36884e-27
7983 267 0.0015 -0.199527 -1.8846 0 -6.62106e-12 3.39198e-13 0 1.00459e-20 1.45804e-26
7982 267 0.0015 -0.197202 -1.88548 0 3.73538e-12 1.12817e-12 0 0 1.11199e-26
10327 345 0.0015 -0.0645802 -1.88463 0 -1.24277e-12 5.27705e-12 0 1.57149e-20 2.01031e-26
10265 343 0.0015 0.420568 -1.88507 0 1.19369e-12 3.68938e-12 0 1.24237e-20 1.24913e-26
1476 50 0.0015 0.567996 -1.88596 0 -3.91738e-12 -1.94515e-12 0 0 8.49694e-27
3536 118 0.0015 0.648126 -1.88476 0 5.39354e-12 2.10261e-12 0 0 3.6038e-26
2645 89 0.0015 -0.585795 -1.88349 0 -4.86438e-12 3.62982e-12 0 0 2.75306e-26
6071 203 0.0015 -0.405575 -1.882 0 1.17918e-12 -1.0718e-11 0 0 1.19687e-26
6070 203 0.0015 -0.403759 -1.88287 0 2.71302e-12 8.87207e-12 0 0 7.99295e-28
6069 203 0.0015 -0.401942 -1.88373 0 2.15196e-12 -8.00222e-12 0 0 1.51592e-26
7985 267 0.0015 -0.204179 -1.88284 0 -1.12108e-12 -3.0889e-12 0 2.00918e-20 7.98411e-30
7984 267 0.0015 -0.201853 -1.88372 0 3.1612e-12 1.87735e-12 0 2.00918e-20 3.94332e-27
1954 66 0.0015 0.0141981 -1.88304 0 8.54369e-13 -7.63295e-12 0 5.20104e-21 4.65493e-26
6002 201 0.0015 0.493952 -1.88275 0 -2.67806e-12 -6.96427e-12 0 0 8.0696e-26
1477 50 0.0015 0.570222 -1.88304 0 1.79524e-12 -8.3335e-13 0 6.81478e-21 2.93237e-27
3535 118 0.0015 0.650663 -1.88285 0 -9.19428e-12 -6.42233e-12 0 0 5.64239e-26
2646 89 0.0015 -0.589516 -1.88064 0 5.54011e-12 -4.2644e-12 0 0 3.31314e-26
6073 203 0.0015 -0.409209 -1.88028 0 5.34088e-12 -1.32087e-12 0 2.48474e-20 1.16866e-26
6072 203 0.0015 -0.407392 -1.88114 0 -6.73697e-12 6.69908e-12 0 2.48474e-20 2.24108e-26
7988 267 0.0015 -0.211156 -1.8802 0 -1.96445e-12 -6.0524e-12 0 1.00459e-20 1.45092e-27
7987 267 0.0015 -0.208831 -1.88108 0 3.00548e-12 1.87213e-12 0 0 1.65726e-27
7986 267 0.0015 -0.206505 -1.88196 0 -8.6351e-13 1.21202e-12 0 1.00459e-20 1.14609e-27
8011 268 0.0015 -0.176367 -1.88159 0 -6.97776e-13 -1.95739e-12 0 0 1.57504e-26
10328 345 0.0015 -0.065257 -1.88152 0 1.21115e-12 -6.82818e-12 0 1.57149e-20 2.39826e-26
8044 269 0.0015 0.1534 -1.88043 0 -6.64834e-14 3.93583e-13 0 3.6872e-21 4.22172e-27
10266 343 0.0015 0.421289 -1.88111 0 -1.19778e-12 -8.1669e-13 0 0 5.81735e-28
1478 50 0.0015 0.572449 -1.88013 0 1.10948e-13 2.5935e-12 0 6.81478e-21 2.32407e-27
3534 118 0.0015 0.653201 -1.88093 0 5.08698e-12 2.89107e-12 0 0 2.16832e-26
10292 344 0.0015 -0.465124 -1.8785 0 2.05445e-12 -3.85272e-12 0 0 1.07629e-26
10291 344 0.0015 -0.4623 -1.87941 0 -3.062e-12 2.19239e-12 0 0 1.0595e-26
6074 203 0.0015 -0.411025 -1.87942 0 3.49206e-12 -4.49764e-13 0 4.96948e-20 1.0578e-26
6075 203 0.0015 -0.412842 -1.87856 0 -9.48299e-12 -2.78046e-12 0 4.96948e-20 1.55531e-26
7990 267 0.0015 -0.215808 -1.87844 0 -9.04736e-13 -4.51702e-12 0 2.00918e-20 2.45525e-28
7989 267 0.0015 -0.213482 -1.87932 0 1.36389e-12 7.42308e-12 0 2.00918e-20 9.616e-28
10329 345 0.0015 -0.0659339 -1.87841 0 1.82964e-12 -6.05516e-12 0 3.14298e-20 6.83579e-26
1955 66 0.0015 0.0137179 -1.87827 0 -3.59235e-13 3.3753e-12 0 1.04021e-20 8.35253e-27
10201 341 0.0015 0.290108 -1.87875 0 9.41089e-14 -7.92246e-13 0 0 1.19785e-27
3533 118 0.0015 0.655738 -1.87902 0 -2.34879e-12 1.69677e-13 0 0 1.39136e-27
2647 89 0.0015 -0.593237 -1.87778 0 2.35567e-12 -1.20501e-12 0 5.32605e-21 4.80576e-26
10294 344 0.0015 -0.470773 -1.87669 0 -8.0075e-12 2.558e-12 0 0 2.9349e-26
10293 344 0.0015 -0.467948 -1.87759 0 4.76179e-12 8.44201e-13 0 0 1.22162e-26
6077 203 0.0015 -0.416475 -1.87683 0 2.26821e-12 -1.38858e-11 0 2.48474e-20 1.88352e-26
6076 203 0.0015 -0.414658 -1.87769 0 4.04274e-12 1.27356e-11 0 4.96948e-20 1.89897e-26
6034 202 0.0015 -0.327828 -1.87791 0 -6.03172e-13 1.10517e-12 0 2.74394e-21 3.80255e-27
7992 267 0.0015 -0.22046 -1.87668 0 5.18135e-12 -1.1551e-12 0 2.00918e-20 1.33325e-26
7991 267 0.0015 -0.218134 -1.87756 0 -4.2216e-12 2.55322e-12 0 2.00918e-20 1.29046e-26
10267 343 0.0015 0.42201 -1.87716 0 5.79589e-13 -3.1934e-12 0 0 1.40274e-26
1479 50 0.0015 0.574675 -1.87722 0 9.50353e-13 -6.77664e-13 0 6.81478e-21 2.8392e-27
3532 118 0.0015 0.658275 -1.8771 0 -1.67609e-13 -1.21148e-12 0 1.57149e-20 3.17047e-27
2648 89 0.0015 -0.596958 -1.87493 0 -9.07656e-12 6.29227e-12 0 5.32605e-21 7.93101e-26
10296 344 0.0015 -0.476421 -1.87487 0 -1.14482e-13 -9.46857e-13 0 1.68424e-20 5.38234e-27
10295 344 0.0015 -0.473597 -1.87578 0 5.96648e-12 -2.01504e-12 0 0 1.97231e-26
6080 203 0.0015 -0.421925 -1.87425 0 -6.27447e-12 -1.67638e-12 0 0 7.27448e-27
6079 203 0.0015 -0.420108 -1.87511 0 3.98389e-12 9.02338e-12 0 0 4.43521e-27
6078 203 0.0015 -0.418291 -1.87597 0 -1.76677e-12 -1.5012e-12 0 0 7.79708e-27
7995 267 0.0015 -0.227437 -1.87404 0 -2.74007e-12 2.59804e-13 0 1.00459e-20 4.78932e-27
7994 267 0.0015 -0.225111 -1.87492 0 -4.38602e-12 3.55401e-12 0 2.00918e-20 2.00025e-26
7993 267 0.0015 -0.222785 -1.8758 0 3.53368e-12 -3.12714e-12 0 3.01377e-20 2.06519e-26
10330 345 0.0015 -0.0666107 -1.87531 0 -3.80709e-12 1.51331e-11 0 1.57149e-20 1.08319e-25
6003 201 0.0015 0.496967 -1.87498 0 7.79452e-13 2.35413e-12 0 0 8.86821e-27
1480 50 0.0015 0.576901 -1.87431 0 -1.90488e-12 -1.62808e-12 0 6.81478e-21 3.05804e-27
3531 118 0.0015 0.660812 -1.87519 0 1.35442e-12 6.78455e-13 0 1.57149e-20 2.59172e-27
2649 89 0.0015 -0.600679 -1.87207 0 4.48148e-12 -3.47645e-12 0 5.32605e-21 4.14064e-26
10299 344 0.0015 -0.484893 -1.87215 0 3.12984e-12 -4.20203e-13 0 0 6.47626e-27
10298 344 0.0015 -0.482069 -1.87306 0 -5.07066e-12 -2.5585e-13 0 1.68424e-20 9.56998e-27
10297 344 0.0015 -0.479245 -1.87396 0 6.12734e-13 1.6807e-12 0 1.68424e-20 6.13984e-27
6082 203 0.0015 -0.425558 -1.87252 0 -1.67702e-11 1.12501e-11 0 0 1.12892e-25
6081 203 0.0015 -0.423741 -1.87338 0 9.98724e-12 -6.78471e-12 0 0 4.89516e-26
7997 267 0.0015 -0.232089 -1.87228 0 1.48499e-12 -8.89629e-12 0 0 7.88271e-27
7996 267 0.0015 -0.229763 -1.87316 0 1.89279e-12 1.85296e-12 0 0 6.38103e-27
10331 345 0.0015 -0.0672875 -1.8722 0 1.90565e-12 -6.94929e-12 0 3.14298e-20 4.42865e-26
1956 66 0.0015 0.0132378 -1.87349 0 2.73517e-13 -2.93472e-12 0 1.04021e-20 5.99873e-27
8045 269 0.0015 0.152704 -1.87369 0 -5.45596e-14 3.88691e-13 0 7.37441e-21 7.90033e-27
10202 341 0.0015 0.289307 -1.87202 0 -3.08177e-13 2.7139e-12 0 0 8.23296e-27
4531 152 0.0015 0.366216 -1.8733 0 -1.23018e-13 8.14032e-13 0 0 1.64235e-27
10268 343 0.0015 0.422731 -1.8732 0 2.81886e-13 6.57258e-12 0 0 2.38619e-26
3530 118 0.0015 0.66335 -1.87327 0 1.67513e-12 1.738e-12 0 1.57149e-20 4.21167e-27
10301 344 0.0015 -0.490541 -1.87033 0 5.41806e-13 5.61564e-13 0 0 1.76404e-27
10300 344 0.0015 -0.487717 -1.87124 0 4.8488e-13 -2.05909e-13 0 0 6.79032e-28
6084 203 0.0015 -0.429191 -1.8708 0 -5.66487e-12 3.42299e-12 0 2.48474e-20 1.2404e-26
6083 203 0.0015 -0.427374 -1.87166 0 1.25866e-11 -8.33346e-12 0 0 7.7382e-26
6035 202 0.0015 -0.332631 -1.87017 0 -1.20294e-12 1.86642e-12 0 2.74394e-21 1.28205e-26
7999 267 0.0015 -0.23674 -1.87052 0 -3.68567e-12 -8.35499e-12 0 1.00459e-20 8.38214e-27
7998 267 0.0015 -0.234415 -1.8714 0 -9.35726e-13 1.22903e-11 0 1.00459e-20 9.6492e-27
1481 50 0.0015 0.579128 -1.8714 0 -2.05186e-13 3.89829e-13 0 1.36296e-20 2.74711e-27
3529 118 0.0015 0.665887 -1.87136 0 -4.69539e-12 -1.90785e-12 0 0 1.07216e-26
2650 89 0.0015 -0.6044 -1.86922 0 1.67405e-12 -3.42749e-13 0 5.32605e-21 3.21702e-27
10303 344 0.0015 -0.49619 -1.86852 0 -4.54617e-12 1.9722e-12 0 0 1.82756e-26
10302 344 0.0015 -0.493366 -1.86943 0 -1.21172e-12 -6.17511e-13 0 0 1.21392e-27
6087 203 0.0015 -0.434641 -1.86821 0 -5.57165e-12 2.25194e-12 0 2.48474e-20 1.01116e-26
6085 203 0.0015 -0.431008 -1.86994 0 1.367e-12 -2.09306e-12 0 2.48474e-20 4.55157e-27
6086 203 0.0015 -0.432824 -1.86908 0 4.97796e-12 1.43671e-12 0 2.48474e-20 6.0747e-27
8001 267 0.0015 -0.241392 -1.86876 0 -5.17752e-12 -1.98828e-12 0 1.00459e-20 6.39556e-27
8000 267 0.0015 -0.239066 -1.86964 0 7.03827e-12 3.47247e-12 0 1.00459e-20 9.90325e-27
8012 268 0.0015 -0.171924 -1.86923 0 1.09213e-12 3.08406e-12 0 0 2.09472e-26
10332 345 0.0015 -0.0679644 -1.86909 0 3.40029e-13 -2.20893e-12 0 3.14298e-20 4.87073e-27
1957 66 0.0015 0.0127576 -1.86871 0 6.44764e-14 -4.00919e-13 0 1.04021e-20 1.02852e-26
10269 343 0.0015 0.423451 -1.86924 0 1.7676e-13 -1.81814e-12 0 0 1.18248e-26
1482 50 0.0015 0.581354 -1.86848 0 9.54445e-13 1.24232e-13 0 1.36296e-20 1.30777e-27
3528 118 0.0015 0.668424 -1.86944 0 6.72376e-12 6.43227e-14 0 0 1.28999e-26
2651 89 0.0015 -0.608121 -1.86636 0 -2.66802e-12 9.12269e-13 0 5.32605e-21 4.79475e-27
10305 344 0.0015 -0.501838 -1.8667 0 4.27107e-12 -2.58099e-12 0 0 1.55206e-26
10304 344 0.0015 -0.499014 -1.86761 0 4.02609e-12 -1.04616e-12 0 0 1.84831e-26
6089 203 0.0015 -0.438274 -1.86649 0 5.77765e-12 6.35496e-12 0 2.48474e-20 4.94049e-27
6088 203 0.0015 -0.436457 -1.86735 0 -1.45671e-13 -7.79631e-12 0 2.48474e-20 4.38184e-27
8004 267 0.0015 -0.248369 -1.86612 0 -5.08467e-12 2.59503e-12 0 0 1.28328e-26
8003 267 0.0015 -0.246044 -1.867 0 -1.41866e-12 2.70611e-12 0 1.00459e-20 1.31408e-26
8002 267 0.0015 -0.243718 -1.86788 0 5.28701e-12 -1.53609e-12 0 1.00459e-20 1.26065e-26
8046 269 0.0015 0.152008 -1.86695 0 1.18051e-13 -8.23709e-13 0 3.6872e-21 6.2145e-27
6004 201 0.0015 0.499982 -1.86721 0 -2.59666e-13 -1.26544e-12 0 5.99535e-21 1.87873e-27
3527 118 0.0015 0.670962 -1.86752 0 1.56441e-12 6.96074e-12 0 1.57149e-20 6.46399e-26
10307 344 0.0015 -0.507486 -1.86489 0 -5.9482e-12 -3.21546e-12 0 0 1.10608e-26
10306 344 0.0015 -0.504662 -1.8658 0 -1.99424e-12 3.85429e-12 0 0 1.65115e-26
6090 203 0.0015 -0.440091 -1.86563 0 -3.87951e-12 -1.31651e-12 0 0 4.83003e-27
8006 267 0.0015 -0.253021 -1.86436 0 2.8547e-12 -5.32184e-13 0 1.00459e-20 2.85648e-27
8005 267 0.0015 -0.250695 -1.86524 0 1.31632e-12 -4.09706e-12 0 1.00459e-20 1.18974e-26
10333 345 0.0015 -0.0686412 -1.86599 0 -6.50307e-14 -6.59268e-13 0 3.14298e-20 1.26803e-26
10203 341 0.0015 0.288506 -1.8653 0 1.77898e-13 -1.84752e-12 0 0 7.04653e-27
4532 152 0.0015 0.364868 -1.86469 0 -6.79781e-14 4.09812e-13 0 0 5.36018e-27
10270 343 0.0015 0.424172 -1.86529 0 -6.35017e-13 -2.93619e-12 0 0 5.17842e-27
1483 50 0.0015 0.58358 -1.86557 0 -2.38412e-12 -2.94555e-12 0 6.81478e-21 1.78996e-26
3526 118 0.0015 0.673499 -1.86561 0 -1.93684e-11 -1.83654e-11 0 3.14298e-20 3.57244e-25
2652 89 0.0015 -0.611842 -1.86351 0 2.54587e-12 -1.44845e-12 0 1.06521e-20 5.80293e-27
10310 344 0.0015 -0.515959 -1.86217 0 -8.51954e-12 1.46847e-12 0 1.68424e-20 3.08007e-26
10309 344 0.0015 -0.513134 -1.86307 0 7.26296e-12 -4.14881e-12 0 1.68424e-20 2.86398e-26
10308 344 0.0015 -0.51031 -1.86398 0 1.44217e-12 3.97452e-12 0 0 1.87653e-26
6036 202 0.0015 -0.337434 -1.86244 0 2.13517e-12 -3.41042e-12 0 2.74394e-21 2.07606e-26
8008 267 0.0015 -0.257673 -1.8626 0 4.34422e-13 -1.00085e-12 0 0 2.86906e-28
8007 267 0.0015 -0.255347 -1.86348 0 -1.26648e-12 2.92519e-12 0 1.00459e-20 2.01699e-27
10334 345 0.0015 -0.0693181 -1.86288 0 -8.74818e-13 5.98363e-12 0 1.57149e-20 1.60722e-26
1958 66 0.0015 0.0122775 -1.86393 0 -3.99586e-13 4.07303e-12 0 5.20104e-21 1.12046e-26
1484 50 0.0015 0.585807 -1.86266 0 5.16893e-12 7.24966e-12 0 0 4.04681e-26
3525 118 0.0015 0.676036 -1.86369 0 1.93684e-11 1.83654e-11 0 3.14298e-20 3.57244e-25
2653 89 0.0015 -0.615563 -1.86065 0 -2.89082e-12 2.29892e-12 0 1.06521e-20 8.88935e-27
10312 344 0.0015 -0.521607 -1.86035 0 -1.79117e-12 -3.83894e-12 0 1.68424e-20 4.63549e-27
10311 344 0.0015 -0.518783 -1.86126 0 6.53897e-12 2.06799e-12 0 3.36849e-20 1.41487e-26
8010 267 0.0015 -0.262324 -1.86085 0 2.91206e-13 1.95856e-13 0 0 2.84963e-29
8009 267 0.0015 -0.259998 -1.86172 0 -5.36434e-13 -4.79822e-13 0 0 3.99674e-29
8047 269 0.0015 0.151313 -1.86021 0 3.86427e-13 -4.02345e-12 0 3.6872e-21 2.09813e-26
10271 343 0.0015 0.424893 -1.86133 0 9.23935e-13 5.09704e-12 0 0 1.65462e-26
3524 118 0.0015 0.678573 -1.86178 0 -1.56441e-12 -6.96074e-12 0 1.57149e-20 6.46399e-26
10314 344 0.0015 -0.527255 -1.85854 0 2.46109e-12 2.91474e-12 0 0 3.55063e-27
10313 344 0.0015 -0.524431 -1.85944 0 -3.00628e-12 1.73259e-12 0 1.68424e-20 4.89452e-27
10335 345 0.0015 -0.0699949 -1.85978 0 -1.71604e-12 6.50494e-12 0 1.57149e-20 9.26808e-26
1959 66 0.0015 0.0117974 -1.85915 0 -5.6244e-13 4.99251e-12 0 5.20104e-21 6.96481e-26
4771 160 0.0015 0.0785585 -1.85825 0 -8.00334e-14 2.71777e-12 0 0 1.88948e-26
10204 341 0.0015 0.287705 -1.85857 0 1.25024e-13 -6.76938e-13 0 3.6872e-21 7.09556e-28
6005 201 0.0015 0.502997 -1.85945 0 -4.24391e-13 -6.0258e-13 0 1.19907e-20 5.32557e-27
1485 50 0.0015 0.588033 -1.85975 0 -3.2114e-12 -4.2145e-12 0 0 2.30572e-26
3523 118 0.0015 0.681111 -1.85986 0 -6.72376e-12 -6.43227e-14 0 0 1.28999e-26
2654 89 0.0015 -0.619284 -1.8578 0 2.60544e-12 -2.36216e-12 0 1.06521e-20 8.05377e-27
10316 344 0.0015 -0.532903 -1.85672 0 -4.21886e-12 3.93185e-12 0 1.68424e-20 1.47801e-26
10315 344 0.0015 -0.530079 -1.85763 0 7.91664e-14 -5.28072e-12 0 0 1.3215e-27
8013 268 0.0015 -0.167482 -1.85688 0 -3.11626e-13 -9.22034e-13 0 1.90242e-21 5.37426e-27
10336 345 0.0015 -0.0706718 -1.85667 0 3.87214e-12 -1.83924e-11 0 3.14298e-20 1.56236e-25
4533 152 0.0015 0.36352 -1.85607 0 1.82645e-13 -1.23313e-12 0 0 3.71797e-27
10272 343 0.0015 0.425614 -1.85738 0 -1.7418e-12 -7.59442e-12 0 0 3.4324e-26
1486 50 0.0015 0.59026 -1.85684 0 3.2114e-12 4.2145e-12 0 0 2.30572e-26
3522 118 0.0015 0.683648 -1.85795 0 4.69539e-12 1.90785e-12 0 0 1.07216e-26
3521 118 0.0015 0.686185 -1.85603 0 -1.67513e-12 -1.738e-12 0 1.57149e-20 4.21167e-27
2655 89 0.0015 -0.623004 -1.85494 0 -1.8155e-12 1.98769e-12 0 5.32605e-21 4.79111e-27
10318 344 0.0015 -0.538552 -1.85491 0 -4.82466e-12 -2.38519e-12 0 1.68424e-20 2.91666e-26
10317 344 0.0015 -0.535727 -1.85581 0 9.8871e-12 -1.09401e-12 0 1.68424e-20 4.01891e-26
6037 202 0.0015 -0.342237 -1.85471 0 -1.78061e-12 2.77244e-12 0 1.09758e-20 1.38034e-26
1960 66 0.0015 0.0113172 -1.85437 0 1.56449e-12 -1.45555e-11 0 5.20104e-21 1.43296e-25
3520 118 0.0015 0.688722 -1.85412 0 -1.35442e-12 -6.78455e-13 0 1.57149e-20 2.59172e-27
2656 89 0.0015 -0.626725 -1.85209 0 1.97188e-12 -2.21205e-12 0 0 5.97482e-27
10320 344 0.0015 -0.5442 -1.85309 0 1.1366e-12 -7.50672e-13 0 0 1.41778e-27
10319 344 0.0015 -0.541376 -1.854 0 -2.34172e-12 2.90154e-12 0 0 4.10321e-27
10337 345 0.0015 -0.0713486 -1.85356 0 -2.66317e-12 1.27987e-11 0 4.71447e-20 8.6327e-26
8048 269 0.0015 0.150617 -1.85348 0 -5.80954e-13 5.73272e-12 0 0 3.17303e-26
10273 343 0.0015 0.426335 -1.85342 0 2.10104e-12 7.25013e-12 0 0 3.23089e-26
1487 50 0.0015 0.592486 -1.85392 0 -5.16893e-12 -7.24966e-12 0 0 4.04681e-26
3519 118 0.0015 0.69126 -1.8522 0 1.67609e-13 1.21148e-12 0 1.57149e-20 3.17047e-27
10338 345 0.0015 -0.0720254 -1.85046 0 2.40963e-12 -8.8817e-12 0 4.71447e-20 3.78166e-26
10205 341 0.0015 0.286904 -1.85184 0 -1.35207e-13 1.00214e-12 0 3.6872e-21 1.00229e-27
6006 201 0.0015 0.506013 -1.85168 0 4.98978e-14 6.3634e-14 0 1.19907e-20 8.19761e-27
1488 50 0.0015 0.594712 -1.85101 0 2.38412e-12 2.94555e-12 0 6.81478e-21 1.78996e-26
3518 118 0.0015 0.693797 -1.85028 0 2.34879e-12 -1.69677e-13 0 0 1.39136e-27
2657 89 0.0015 -0.630446 -1.84923 0 -3.55476e-12 3.3169e-12 0 0 1.60338e-26
1961 66 0.0015 0.0108371 -1.84959 0 -1.36772e-12 1.24391e-11 0 5.20104e-21 1.09846e-25
4772 160 0.0015 0.0782973 -1.84905 0 1.48951e-13 -4.98247e-12 0 2.71488e-21 3.20156e-26
10274 343 0.0015 0.427056 -1.84946 0 -2.0258e-12 -7.08963e-12 0 0 3.06728e-26
1489 50 0.0015 0.596939 -1.8481 0 -9.54445e-13 -1.24232e-13 0 1.36296e-20 1.30777e-27
3517 118 0.0015 0.696334 -1.84837 0 -5.08698e-12 -2.89107e-12 0 0 2.16832e-26
2658 89 0.0015 -0.634167 -1.84638 0 1.77832e-12 -1.6925e-12 0 0 1.1821e-26
6038 202 0.0015 -0.34704 -1.84697 0 7.97634e-13 -1.15034e-12 0 1.09758e-20 5.8999e-27
10339 345 0.0015 -0.0727023 -1.84735 0 -2.72262e-12 9.75945e-12 0 3.14298e-20 4.51903e-26
8049 269 0.0015 0.149922 -1.84674 0 4.66966e-13 -4.38746e-12 0 0 1.86894e-26
6541 219 0.0015 0.213251 -1.84656 0 -9.94701e-14 1.22542e-12 0 0 2.98478e-27
4534 152 0.0015 0.362172 -1.84745 0 -3.41138e-14 2.90297e-13 0 0 1.95878e-28
3516 118 0.0015 0.698871 -1.84645 0 9.19428e-12 6.42233e-12 0 0 5.64239e-26
8014 268 0.0015 -0.163039 -1.84452 0 -3.42386e-13 -9.11596e-13 0 1.90242e-21 2.24621e-27
10340 345 0.0015 -0.0733791 -1.84424 0 1.97244e-12 -7.94928e-12 0 1.57149e-20 3.09813e-26
1962 66 0.0015 0.010357 -1.84481 0 8.48506e-13 -7.44341e-12 0 5.20104e-21 4.06015e-26
10206 341 0.0015 0.286103 -1.84511 0 1.06266e-13 -9.6486e-13 0 3.6872e-21 9.12653e-28
10275 343 0.0015 0.427777 -1.84551 0 2.29542e-12 1.03624e-11 0 0 6.56094e-26
1490 50 0.0015 0.599165 -1.84519 0 2.05186e-13 -3.89829e-13 0 1.36296e-20 2.74711e-27
3515 118 0.0015 0.701409 -1.84454 0 -5.39354e-12 -2.10261e-12 0 0 3.6038e-26
2659 89 0.0015 -0.637888 -1.84352 0 8.90028e-13 -5.60077e-13 0 0 7.1418e-28
6007 201 0.0015 0.509028 -1.84391 0 1.646e-12 3.94189e-12 0 5.99535e-21 2.44019e-26
1491 50 0.0015 0.601391 -1.84228 0 1.90488e-12 1.62808e-12 0 6.81478e-21 3.05804e-27
3514 118 0.0015 0.703946 -1.84262 0 -1.02283e-13 -2.51725e-12 0 1.57149e-20 1.12956e-27
2660 89 0.0015 -0.641609 -1.84066 0 -2.55072e-12 1.7579e-12 0 0 8.97121e-27
10341 345 0.0015 -0.074056 -1.84114 0 -6.67148e-13 1.56491e-12 0 0 1.11716e-26
1963 66 0.0015 0.00987681 -1.84004 0 -6.74244e-13 6.2322e-12 0 0 2.6822e-26
10276 343 0.0015 0.428498 -1.84155 0 -2.29542e-12 -1.03624e-11 0 0 6.56094e-26
3513 118 0.0015 0.706483 -1.84071 0 1.47764e-12 2.64368e-12 0 1.57149e-20 3.94305e-27
6039 202 0.0015 -0.351842 -1.83924 0 3.72138e-13 -6.1678e-13 0 8.23182e-21 9.37213e-28
10342 345 0.0015 -0.0747328 -1.83803 0 1.20258e-12 -2.19648e-12 0 0 1.57856e-26
4773 160 0.0015 0.0780361 -1.83985 0 -6.9868e-14 2.22086e-12 0 2.71488e-21 1.31257e-26
8050 269 0.0015 0.149226 -1.84 0 -8.58803e-14 4.11286e-13 0 0 1.08242e-26
6542 219 0.0015 0.21269 -1.83947 0 1.80136e-13 -2.03506e-12 0 0 4.29152e-27
10207 341 0.0015 0.285302 -1.83839 0 -7.5712e-14 7.54406e-13 0 3.6872e-21 6.76031e-28
4535 152 0.0015 0.360823 -1.83883 0 5.0246e-13 -3.14563e-12 0 0 2.05929e-26
1492 50 0.0015 0.603618 -1.83936 0 -9.50353e-13 6.77664e-13 0 6.81478e-21 2.8392e-27
3512 118 0.0015 0.70902 -1.83879 0 -4.04238e-12 -3.97234e-12 0 1.57149e-20 1.52685e-26
2661 89 0.0015 -0.64533 -1.83781 0 2.97463e-12 -1.99069e-12 0 0 9.91922e-27
10277 343 0.0015 0.429219 -1.8376 0 2.0258e-12 7.08963e-12 0 0 3.06728e-26
6008 201 0.0015 0.512043 -1.83614 0 -1.564e-12 -3.69939e-12 0 0 2.30243e-26
1493 50 0.0015 0.605844 -1.83645 0 -1.10948e-13 -2.5935e-12 0 6.81478e-21 2.32407e-27
3511 118 0.0015 0.711558 -1.83688 0 2.75699e-12 2.44857e-12 0 0 1.19313e-26
2662 89 0.0015 -0.649051 -1.83495 0 4.94743e-13 -2.51456e-13 0 0 4.41593e-27
10343 345 0.0015 -0.0754097 -1.83493 0 -2.66298e-12 8.54784e-12 0 0 3.56018e-26
1964 66 0.0015 0.00939668 -1.83526 0 1.02066e-12 -1.02197e-11 0 0 7.65509e-26
2663 89 0.0015 -0.652772 -1.8321 0 -2.13004e-12 6.71184e-13 0 0 3.51081e-27
10171 340 0.0015 -0.234195 -1.83312 0 -4.40107e-14 9.99832e-15 0 6.39056e-21 2.44443e-30
8015 268 0.0015 -0.158597 -1.83216 0 4.90934e-13 1.35564e-12 0 1.90242e-21 3.79865e-27
8051 269 0.0015 0.14853 -1.83326 0 -2.64018e-13 3.30504e-12 0 3.6872e-21 1.04648e-26
6543 219 0.0015 0.212128 -1.83239 0 -3.22976e-13 3.3879e-12 0 0 1.45463e-26
10278 343 0.0015 0.429939 -1.83364 0 -2.10104e-12 -7.25013e-12 0 0 3.23089e-26
1494 50 0.0015 0.60807 -1.83354 0 -1.79524e-12 8.3335e-13 0 6.81478e-21 2.93237e-27
6040 202 0.0015 -0.356645 -1.83151 0 -1.88309e-13 2.40988e-13 0 0 1.11357e-27
10344 345 0.0015 -0.0760865 -1.83182 0 8.17631e-13 -1.27664e-12 0 0 3.30844e-26
1965 66 0.0015 0.00891654 -1.83048 0 -1.11547e-12 1.13803e-11 0 0 8.95821e-26
4774 160 0.0015 0.0777749 -1.83066 0 -4.70536e-14 1.71432e-12 0 5.42976e-21 7.14304e-27
10208 341 0.0015 0.284501 -1.83166 0 -1.33778e-13 8.26279e-13 0 7.37441e-21 2.04752e-27
4536 152 0.0015 0.359475 -1.83021 0 -7.10923e-13 4.33957e-12 0 0 2.58205e-26
1495 50 0.0015 0.610297 -1.83063 0 3.91738e-12 1.94515e-12 0 0 8.49694e-27
2664 89 0.0015 -0.656493 -1.82924 0 3.49499e-12 -1.26281e-12 0 0 1.20356e-26
10345 345 0.0015 -0.0767633 -1.82871 0 -1.81052e-13 -1.34037e-12 0 2.35723e-20 1.58039e-26
10279 343 0.0015 0.43066 -1.82968 0 1.7418e-12 7.59442e-12 0 0 3.4324e-26
6009 201 0.0015 0.515058 -1.82837 0 4.93602e-13 1.12478e-12 0 0 2.56783e-27
2665 89 0.0015 -0.660213 -1.82639 0 -6.15784e-12 3.77573e-12 0 0 3.45657e-26
10172 340 0.0015 -0.238704 -1.82673 0 2.03633e-13 -1.81856e-13 0 1.27811e-20 1.1979e-28
8052 269 0.0015 0.147835 -1.82652 0 2.94127e-13 -3.79135e-12 0 3.6872e-21 1.36116e-26
1496 50 0.0015 0.612523 -1.82772 0 8.06602e-13 2.34538e-12 0 0 3.07916e-26
10346 345 0.0015 -0.0774402 -1.82561 0 2.482e-12 -8.38282e-12 0 2.35723e-20 4.11503e-26
1966 66 0.0015 0.0084364 -1.8257 0 8.05554e-13 -8.26009e-12 0 0 4.6996e-26
6544 219 0.0015 0.211567 -1.8253 0 3.33716e-13 -3.15605e-12 0 3.51396e-21 1.39112e-26
10209 341 0.0015 0.2837 -1.82493 0 3.95019e-13 -2.76041e-12 0 7.37441e-21 7.82272e-27
10280 343 0.0015 0.431381 -1.82573 0 -9.23935e-13 -5.09704e-12 0 0 1.65462e-26
1497 50 0.0015 0.614749 -1.8248 0 -6.37362e-12 -6.97842e-12 0 0 4.51903e-26
2666 89 0.0015 -0.663934 -1.82353 0 5.57137e-12 -4.06345e-12 0 0 3.24161e-26
6041 202 0.0015 -0.361448 -1.82377 0 -1.0224e-12 1.62244e-12 0 0 6.89952e-27
10347 345 0.0015 -0.078117 -1.8225 0 -2.42345e-12 9.73934e-12 0 2.35723e-20 4.7977e-26
2667 89 0.0015 -0.667655 -1.82068 0 -2.77005e-12 2.26659e-12 0 0 1.04942e-26
10173 340 0.0015 -0.243212 -1.82034 0 7.75136e-13 -1.13611e-12 0 1.91717e-20 5.72978e-27
1967 66 0.0015 0.00795626 -1.82092 0 -3.95602e-13 4.19873e-12 0 0 1.71959e-26
4775 160 0.0015 0.0775136 -1.82146 0 1.07386e-13 -3.6518e-12 0 2.71488e-21 1.71805e-26
4537 152 0.0015 0.358127 -1.82159 0 4.49545e-13 -2.55848e-12 0 0 8.36175e-27
10281 343 0.0015 0.432102 -1.82177 0 6.35017e-13 2.93619e-12 0 0 5.17842e-27
6010 201 0.0015 0.518074 -1.8206 0 -1.0883e-15 3.41844e-14 0 0 1.99928e-28
1498 50 0.0015 0.616976 -1.82189 0 3.74993e-12 2.74523e-12 0 0 2.092e-26
8016 268 0.0015 -0.154154 -1.81981 0 -1.23355e-13 -3.59594e-13 0 0 2.07711e-27
10348 345 0.0015 -0.0787939 -1.81939 0 -5.95219e-14 -2.5175e-12 0 0 1.26223e-26
8053 269 0.0015 0.147139 -1.81978 0 -4.46055e-13 5.17776e-12 0 3.6872e-21 2.69345e-26
6545 219 0.0015 0.211005 -1.81821 0 -4.0083e-13 4.04475e-12 0 3.51396e-21 2.45935e-26
10210 341 0.0015 0.282899 -1.8182 0 -3.94511e-13 2.9842e-12 0 7.37441e-21 8.77325e-27
1499 50 0.0015 0.619202 -1.81898 0 -2.1997e-12 -1.91777e-12 0 0 8.76606e-27
2668 89 0.0015 -0.671376 -1.81782 0 -1.49705e-12 6.70447e-13 0 0 8.98427e-27
6042 202 0.0015 -0.366251 -1.81604 0 1.28178e-12 -1.99613e-12 0 2.74394e-21 8.09208e-27
10349 345 0.0015 -0.0794707 -1.81629 0 1.64169e-12 -3.60125e-12 0 0 7.68355e-27
1968 66 0.0015 0.00747613 -1.81614 0 -4.06124e-13 3.45129e-12 0 0 2.38392e-26
10282 343 0.0015 0.432823 -1.81781 0 -1.7676e-13 1.81814e-12 0 0 1.18248e-26
1500 50 0.0015 0.621428 -1.81607 0 1.82002e-12 2.30081e-12 0 0 8.76053e-27
2669 89 0.0015 -0.675097 -1.81497 0 5.21691e-12 -3.40474e-12 0 0 2.61712e-26
5941 199 0.0015 0.740778 -1.81551 0 -7.25345e-13 -3.02516e-12 0 0 2.58222e-26
2670 89 0.0015 -0.678818 -1.81211 0 -3.07918e-12 2.12567e-12 0 0 1.8193e-26
10174 340 0.0015 -0.24772 -1.81396 0 -1.21127e-12 1.68601e-12 0 1.27811e-20 6.08869e-27
10350 345 0.0015 -0.0801475 -1.81318 0 -8.80427e-13 2.58674e-12 0 0 6.50889e-27
4776 160 0.0015 0.0772524 -1.81226 0 -7.6558e-14 2.48244e-12 0 2.71488e-21 1.06849e-26
8054 269 0.0015 0.146443 -1.81304 0 4.05454e-13 -4.56732e-12 0 0 2.3126e-26
4538 152 0.0015 0.356779 -1.81297 0 -2.73187e-13 1.35789e-12 0 0 3.13201e-27
10283 343 0.0015 0.433544 -1.81386 0 -2.81886e-13 -6.57258e-12 0 0 2.38619e-26
6011 201 0.0015 0.521089 -1.81283 0 1.94623e-13 4.05194e-13 0 0 1.15758e-27
1969 66 0.0015 0.00699599 -1.81136 0 7.45335e-13 -6.56727e-12 0 0 3.11331e-26
6546 219 0.0015 0.210443 -1.81113 0 6.61341e-13 -7.82426e-12 0 3.51396e-21 6.16573e-26
10211 341 0.0015 0.282098 -1.81148 0 3.34385e-13 -3.10276e-12 0 3.6872e-21 9.52987e-27
6043 202 0.0015 -0.371054 -1.8083 0 5.56093e-13 -8.63489e-13 0 5.48788e-21 9.35827e-27
10284 343 0.0015 0.434265 -1.8099 0 -5.79589e-13 3.1934e-12 0 0 1.40274e-26
10175 340 0.0015 -0.252228 -1.80757 0 -1.97178e-13 2.75888e-13 0 6.39056e-21 1.89195e-27
8017 268 0.0015 -0.149712 -1.80745 0 3.43937e-13 9.64617e-13 0 0 6.82483e-27
1970 66 0.0015 0.00651585 -1.80658 0 6.95212e-13 -7.49018e-12 0 0 1.40325e-25
8055 269 0.0015 0.145748 -1.8063 0 7.26086e-14 -2.14224e-13 0 0 8.06501e-27
5942 199 0.0015 0.743061 -1.80618 0 1.2003e-12 5.11014e-12 0 0 3.80203e-26
6547 219 0.0015 0.209882 -1.80404 0 -3.51725e-13 4.74759e-12 0 0 3.80343e-26