ITEM: TIMESTEP
119970
ITEM: NUMBER OF ATOMS
10500
ITEM: BOX BOUNDS pp pp pp
-1.0249999999999999e+00 1.0249999999999999e+00
-2.0000000000000000e+00 2.0000000000000000e+00
-5.0000000000000003e-02 5.0000000000000003e-02
ITEM: ATOMS id type radius x y z fx fy fz c_bendingE c_stretchingE
10321 345 0.0015 -0.0605191 -1.90326 0 2.01526e-12 -8.29605e-12 0 0 6.43289e-26
6031 202 0.0015 -0.31342 -1.90111 0 1.04596e-12 -1.69462e-12 0 0 1.00286e-26
10322 345 0.0015 -0.061196 -1.90016 0 -1.69711e-12 5.30962e-12 0 0 7.22012e-26
8041 269 0.0015 0.155487 -1.90065 0 -2.65225e-14 1.54802e-13 0 0 4.62131e-29
10261 343 0.0015 0.417684 -1.90089 0 1.62361e-12 8.15879e-12 0 0 7.7281e-26
1471 50 0.0015 0.556864 -1.90052 0 2.97808e-13 6.54814e-13 0 0 5.00451e-28
10323 345 0.0015 -0.0618728 -1.89705 0 -6.5424e-13 5.614e-12 0 0 1.40219e-26
1951 66 0.0015 0.0156385 -1.89738 0 -5.39792e-13 5.353e-12 0 0 3.86179e-26
10262 343 0.0015 0.418405 -1.89694 0 -2.48316e-12 -1.13816e-11 0 0 8.96284e-26
1472 50 0.0015 0.559091 -1.8976 0 2.16017e-12 1.73111e-12 0 0 1.21903e-26
2641 89 0.0015 -0.570912 -1.89491 0 -4.37798e-12 3.58046e-12 0 0 4.16325e-26
1473 50 0.0015 0.561317 -1.89469 0 -9.97467e-13 1.28482e-13 0 0 2.01621e-26
2642 89 0.0015 -0.574633 -1.89206 0 7.35411e-12 -6.42601e-12 0 0 6.34625e-26
6032 202 0.0015 -0.318223 -1.89337 0 -1.89438e-12 3.06618e-12 0 0 1.66059e-26
10324 345 0.0015 -0.0625496 -1.89394 0 -2.22521e-13 -6.42972e-13 0 1.57149e-20 9.88996e-27
1952 66 0.0015 0.0151583 -1.8926 0 4.24542e-13 -4.20839e-12 0 0 4.03835e-26
8042 269 0.0015 0.154791 -1.89391 0 -5.63962e-13 5.86733e-12 0 0 6.89491e-26
10263 343 0.0015 0.419126 -1.89298 0 1.48112e-12 5.55054e-12 0 0 1.87894e-26
3540 118 0.0015 0.637977 -1.89243 0 -1.13629e-12 -3.79295e-13 0 0 1.13843e-27
6061 203 0.0015 -0.387409 -1.89062 0 6.0381e-12 3.23514e-12 0 2.48474e-20 9.24534e-27
10325 345 0.0015 -0.0632265 -1.89084 0 3.09981e-12 -1.37878e-11 0 1.57149e-20 1.32471e-25
10231 342 0.0015 0.215 -1.89 0 -2.39704e-12 0 0 0 1.10052e-27
10232 342 0.0015 0.21569 -1.89 0 3.26034e-12 0 0 0 1.24322e-27
10233 342 0.0015 0.216379 -1.89 0 7.24642e-13 0 0 0 6.25491e-28
10234 342 0.0015 0.217069 -1.89 0 -3.73099e-12 0 0 0 1.36279e-27
10235 342 0.0015 0.217759 -1.89 0 4.96184e-12 0 0 0 2.40238e-27
10236 342 0.0015 0.218448 -1.89 0 -8.43906e-12 0 0 0 7.57408e-27
10237 342 0.0015 0.219138 -1.89 0 1.30029e-11 0 0 0 1.64936e-26
10238 342 0.0015 0.219828 -1.89 0 -1.43071e-11 0 0 0 1.96273e-26
10239 342 0.0015 0.220517 -1.89 0 1.23516e-11 0 0 0 1.48275e-26
10240 342 0.0015 0.221207 -1.89 0 -1.25327e-11 0 0 0 1.53142e-26
10241 342 0.0015 0.221897 -1.89 0 1.42718e-11 0 0 0 1.95084e-26
10242 342 0.0015 0.222586 -1.89 0 -1.26414e-11 0 0 0 1.55799e-26
10243 342 0.0015 0.223276 -1.89 0 1.16627e-11 0 0 0 1.30782e-26
10244 342 0.0015 0.223966 -1.89 0 -1.46697e-11 0 0 0 2.11167e-26
10245 342 0.0015 0.224655 -1.89 0 2.061e-11 0 0 0 4.19593e-26
10246 342 0.0015 0.225345 -1.89 0 -2.061e-11 0 0 0 4.19593e-26
10247 342 0.0015 0.226034 -1.89 0 1.46697e-11 0 0 0 2.11167e-26
10248 342 0.0015 0.226724 -1.89 0 -1.16627e-11 0 0 0 1.30782e-26
10249 342 0.0015 0.227414 -1.89 0 1.26414e-11 0 0 0 1.55799e-26
10250 342 0.0015 0.228103 -1.89 0 -1.42718e-11 0 0 0 1.95084e-26
10251 342 0.0015 0.228793 -1.89 0 1.25327e-11 0 0 0 1.53142e-26
10252 342 0.0015 0.229483 -1.89 0 -1.23516e-11 0 0 0 1.48275e-26
10253 342 0.0015 0.230172 -1.89 0 1.43071e-11 0 0 0 1.96273e-26
10254 342 0.0015 0.230862 -1.89 0 -1.30029e-11 0 0 0 1.64936e-26
10255 342 0.0015 0.231552 -1.89 0 8.43906e-12 0 0 0 7.57408e-27
10256 342 0.0015 0.232241 -1.89 0 -4.96184e-12 0 0 0 2.40238e-27
10257 342 0.0015 0.232931 -1.89 0 3.73099e-12 0 0 0 1.36279e-27
10258 342 0.0015 0.233621 -1.89 0 -7.24642e-13 0 0 0 6.25491e-28
10259 342 0.0015 0.23431 -1.89 0 -3.26034e-12 0 0 0 1.24322e-27
10260 342 0.0015 0.235 -1.89 0 2.39704e-12 0 0 0 1.10052e-27
6001 201 0.0015 0.490936 -1.89052 0 7.24214e-13 1.95955e-12 0 0 1.00997e-26
1474 50 0.0015 0.563543 -1.89178 0 -4.30895e-12 -5.95866e-12 0 0 2.87828e-26
3539 118 0.0015 0.640514 -1.89051 0 4.98428e-12 2.6351e-12 0 0 1.84711e-26
2643 89 0.0015 -0.578354 -1.8892 0 -7.18464e-12 6.54325e-12 0 0 6.25386e-26
6063 203 0.0015 -0.391043 -1.8889 0 -2.54149e-12 1.0267e-11 0 7.45423e-20 1.73218e-26
6064 203 0.0015 -0.392859 -1.88804 0 4.60267e-12 -1.19161e-12 0 4.96948e-20 1.67278e-26
6062 203 0.0015 -0.389226 -1.88976 0 -8.07944e-12 -1.05151e-11 0 4.96948e-20 1.01549e-26
10264 343 0.0015 0.419847 -1.88903 0 -9.49873e-13 -4.17833e-12 0 0 1.03879e-26
1475 50 0.0015 0.56577 -1.88887 0 5.32777e-12 6.20709e-12 0 1.36296e-20 3.42555e-26
3538 118 0.0015 0.643052 -1.8886 0 -8.74195e-12 -5.27013e-12 0 0 4.6247e-26
2644 89 0.0015 -0.582074 -1.88635 0 8.32512e-12 -6.82919e-12 0 0 7.5562e-26
6066 203 0.0015 -0.396492 -1.88631 0 5.00659e-12 -1.75672e-11 0 0 5.79008e-26
6065 203 0.0015 -0.394676 -1.88717 0 -3.11951e-13 2.46002e-12 0 2.48474e-20 2.75045e-27
7981 267 0.0015 -0.194876 -1.88635 0 2.9972e-12 -6.76354e-13 0 0 6.39449e-27
10326 345 0.0015 -0.0639033 -1.88773 0 -5.40048e-12 2.43692e-11 0 1.57149e-20 2.75384e-25
1953 66 0.0015 0.0146782 -1.88782 0 4.85847e-13 -4.66516e-12 0 0 1.84841e-26
8043 269 0.0015 0.154095 -1.88717 0 8.33921e-13 -8.69752e-12 0 0 8.24824e-26
3537 118 0.0015 0.645589 -1.88668 0 8.87483e-12 4.97063e-12 0 0 4.56698e-26
6068 203 0.0015 -0.400126 -1.88459 0 -2.52912e-12 7.17142e-13 0 0 1.10084e-26
6067 203 0.0015 -0.398309 -1.88545 0 -3.21829e-12 2.01118e-11 0 0 5.68304e-26
6033 202 0.0015 -0.323025 -1.88564 0 -7.01535e-13 1.17812e-12 0 2.74394e-21 2.90898e-26
7983 267 0.0015 -0.199527 -1.8846 0 1.49703e-12 4.81005e-12 0 1.00459e-20 4.94494e-27
7982 267 0.0015 -0.197202 -1.88548 0 -5.2091e-12 -2.66651e-13 0 1.00459e-20 8.47437e-27
10327 345 0.0015 -0.0645802 -1.88463 0 3.46437e-12 -1.36273e-11 0 0 1.47854e-25
10265 343 0.0015 0.420568 -1.88507 0 7.49517e-14 1.76137e-12 0 0 3.96567e-27
1476 50 0.0015 0.567996 -1.88596 0 -4.51251e-12 -5.46447e-12 0 2.04443e-20 2.55849e-26
3536 118 0.0015 0.648126 -1.88476 0 -7.00339e-12 -3.65035e-12 0 1.57149e-20 2.71629e-26
2645 89 0.0015 -0.585795 -1.88349 0 -4.41277e-12 3.11547e-12 0 0 3.49195e-26
6071 203 0.0015 -0.405575 -1.882 0 -7.59276e-12 -7.65468e-12 0 4.96948e-20 5.71459e-26
6070 203 0.0015 -0.403759 -1.88287 0 2.59885e-11 1.37881e-11 0 4.96948e-20 8.6213e-26
6069 203 0.0015 -0.401942 -1.88373 0 -1.3284e-11 -1.70345e-11 0 2.48474e-20 5.34419e-26
7985 267 0.0015 -0.204179 -1.88284 0 1.09753e-12 5.3641e-12 0 0 3.34912e-28
7984 267 0.0015 -0.201853 -1.88372 0 2.11585e-13 -7.0783e-12 0 1.00459e-20 3.17072e-27
1954 66 0.0015 0.0141981 -1.88304 0 -5.35608e-13 4.99291e-12 0 5.20104e-21 1.96466e-26
6002 201 0.0015 0.493952 -1.88275 0 -2.22041e-12 -5.99937e-12 0 0 5.30484e-26
1477 50 0.0015 0.570222 -1.88304 0 1.12073e-12 2.39824e-12 0 2.04443e-20 1.22838e-26
3535 118 0.0015 0.650663 -1.88285 0 1.10531e-11 7.9747e-12 0 1.57149e-20 1.02167e-25
2646 89 0.0015 -0.589516 -1.88064 0 1.19738e-12 -6.5608e-13 0 0 1.7124e-27
6073 203 0.0015 -0.409209 -1.88028 0 2.54357e-13 -2.011e-12 0 0 1.17538e-26
6072 203 0.0015 -0.407392 -1.88114 0 -7.251e-12 5.43111e-12 0 2.48474e-20 2.25576e-26
7988 267 0.0015 -0.211156 -1.8802 0 5.36541e-12 6.96369e-13 0 0 7.88019e-27
7987 267 0.0015 -0.208831 -1.88108 0 -5.85631e-12 3.045e-12 0 0 1.56923e-26
7986 267 0.0015 -0.206505 -1.88196 0 2.6707e-12 -5.00732e-12 0 0 1.14348e-26
8011 268 0.0015 -0.176367 -1.88159 0 3.71814e-13 1.01487e-12 0 0 4.26074e-27
10328 345 0.0015 -0.065257 -1.88152 0 -1.03773e-12 2.55532e-12 0 0 3.32709e-27
8044 269 0.0015 0.1534 -1.88043 0 1.21429e-14 2.22861e-13 0 3.6872e-21 2.50218e-26
10266 343 0.0015 0.421289 -1.88111 0 3.91174e-13 -1.06157e-12 0 0 1.38982e-27
1478 50 0.0015 0.572449 -1.88013 0 -3.83392e-13 -2.68057e-12 0 6.81478e-21 1.07958e-26
3534 118 0.0015 0.653201 -1.88093 0 -1.07009e-11 -1.0003e-11 0 1.57149e-20 1.08655e-25
10292 344 0.0015 -0.465124 -1.8785 0 -3.84917e-12 6.07343e-13 0 1.68424e-20 7.32204e-27
10291 344 0.0015 -0.4623 -1.87941 0 2.63618e-12 -8.94647e-13 0 1.68424e-20 6.38396e-27
6074 203 0.0015 -0.411025 -1.87942 0 1.01626e-11 -1.51235e-12 0 0 3.27057e-26
6075 203 0.0015 -0.412842 -1.87856 0 -1.49358e-11 5.529e-12 0 0 7.09162e-26
7990 267 0.0015 -0.215808 -1.87844 0 3.17998e-12 2.35961e-12 0 0 1.65148e-27
7989 267 0.0015 -0.213482 -1.87932 0 -4.46577e-12 -1.6974e-12 0 0 4.75288e-27
10329 345 0.0015 -0.0659339 -1.87841 0 9.87844e-14 -1.39629e-12 0 0 2.15155e-27
1955 66 0.0015 0.0137179 -1.87827 0 2.90828e-13 -3.13031e-12 0 5.20104e-21 6.61433e-27
10201 341 0.0015 0.290108 -1.87875 0 -1.27684e-13 1.0353e-12 0 3.6872e-21 2.04773e-27
3533 118 0.0015 0.655738 -1.87902 0 -3.95299e-12 2.87623e-12 0 1.57149e-20 4.65604e-26
2647 89 0.0015 -0.593237 -1.87778 0 -1.87912e-13 2.31951e-13 0 0 2.55221e-27
10294 344 0.0015 -0.470773 -1.87669 0 3.36211e-12 -2.93059e-12 0 0 1.22323e-26
10293 344 0.0015 -0.467948 -1.87759 0 -2.08614e-12 2.58766e-12 0 1.68424e-20 1.31178e-26
6077 203 0.0015 -0.416475 -1.87683 0 1.00909e-13 1.79555e-11 0 0 2.19728e-26
6076 203 0.0015 -0.414658 -1.87769 0 1.04204e-11 -1.24968e-11 0 0 6.28201e-26
6034 202 0.0015 -0.327828 -1.87791 0 3.12e-12 -5.19428e-12 0 2.74394e-21 4.64228e-26
7992 267 0.0015 -0.22046 -1.87668 0 4.05716e-12 7.72526e-12 0 1.00459e-20 3.01339e-27
7991 267 0.0015 -0.218134 -1.87756 0 -4.62627e-12 -4.44936e-12 0 1.00459e-20 3.00972e-27
10267 343 0.0015 0.42201 -1.87716 0 6.26436e-14 4.61586e-12 0 0 1.4626e-26
1479 50 0.0015 0.574675 -1.87722 0 -7.54237e-13 1.0361e-12 0 0 1.80924e-26
3532 118 0.0015 0.658275 -1.8771 0 1.24394e-11 6.04193e-13 0 1.57149e-20 4.75163e-26
2648 89 0.0015 -0.596958 -1.87493 0 -1.41868e-12 8.64971e-13 0 0 1.77809e-27
10296 344 0.0015 -0.476421 -1.87487 0 -3.75175e-12 3.11739e-12 0 0 1.20973e-26
10295 344 0.0015 -0.473597 -1.87578 0 3.34117e-12 -1.04358e-12 0 0 1.16582e-26
6080 203 0.0015 -0.421925 -1.87425 0 1.72976e-11 -7.48648e-12 0 0 1.03396e-25
6079 203 0.0015 -0.420108 -1.87511 0 -1.22183e-11 1.22268e-11 0 0 8.57525e-26
6078 203 0.0015 -0.418291 -1.87597 0 -1.04756e-12 -1.71814e-11 0 0 1.46908e-26
7995 267 0.0015 -0.227437 -1.87404 0 2.81068e-12 -8.52417e-12 0 0 1.10547e-26
7994 267 0.0015 -0.225111 -1.87492 0 -3.47809e-12 7.0549e-12 0 0 1.14978e-26
7993 267 0.0015 -0.222785 -1.8758 0 8.52088e-13 -8.96286e-12 0 1.00459e-20 7.22163e-27
10330 345 0.0015 -0.0666107 -1.87531 0 1.10166e-12 -2.49055e-12 0 0 5.54992e-27
6003 201 0.0015 0.496967 -1.87498 0 2.64779e-12 7.16312e-12 0 0 6.85915e-26
1480 50 0.0015 0.576901 -1.87431 0 5.62456e-12 6.51904e-12 0 0 4.22222e-26
3531 118 0.0015 0.660812 -1.87519 0 -5.87387e-12 3.1108e-12 0 1.57149e-20 2.03512e-26
2649 89 0.0015 -0.600679 -1.87207 0 -2.85174e-12 2.28014e-12 0 0 2.68889e-26
10299 344 0.0015 -0.484893 -1.87215 0 -2.07281e-12 3.12408e-12 0 1.68424e-20 6.11227e-27
10298 344 0.0015 -0.482069 -1.87306 0 6.22998e-12 -1.93631e-12 0 0 1.8026e-26
10297 344 0.0015 -0.479245 -1.87396 0 -3.45432e-12 -8.26403e-13 0 0 1.24432e-26
6082 203 0.0015 -0.425558 -1.87252 0 -5.8447e-12 -7.03491e-12 0 2.48474e-20 1.48378e-27
6081 203 0.0015 -0.423741 -1.87338 0 -3.82252e-12 7.1929e-12 0 0 3.15154e-26
7997 267 0.0015 -0.232089 -1.87228 0 -5.94004e-12 -1.23069e-11 0 0 6.00206e-27
7996 267 0.0015 -0.229763 -1.87316 0 3.30625e-13 1.33424e-11 0 0 7.62631e-27
10331 345 0.0015 -0.0672875 -1.8722 0 -4.96335e-13 1.76974e-12 0 0 5.91774e-27
1956 66 0.0015 0.0132378 -1.87349 0 -3.12243e-14 1.62858e-12 0 5.20104e-21 3.68818e-27
8045 269 0.0015 0.152704 -1.87369 0 -3.98497e-13 4.16062e-12 0 3.6872e-21 1.69693e-26
10202 341 0.0015 0.289307 -1.87202 0 1.25213e-13 -8.54922e-13 0 7.37441e-21 2.1083e-27
4531 152 0.0015 0.366216 -1.8733 0 3.36125e-13 -2.19237e-12 0 0 1.19208e-26
10268 343 0.0015 0.422731 -1.8732 0 5.36658e-13 -1.94132e-12 0 0 1.62282e-26
3530 118 0.0015 0.66335 -1.87327 0 5.53195e-13 -4.58652e-12 0 1.57149e-20 2.86098e-27
10301 344 0.0015 -0.490541 -1.87033 0 4.19693e-12 5.95432e-12 0 5.05273e-20 2.5477e-27
10300 344 0.0015 -0.487717 -1.87124 0 -1.90083e-12 -5.03406e-12 0 3.36849e-20 2.30495e-28
6084 203 0.0015 -0.429191 -1.8708 0 -9.2896e-12 1.04892e-11 0 2.48474e-20 4.64263e-26
6083 203 0.0015 -0.427374 -1.87166 0 7.57362e-12 -1.80737e-12 0 2.48474e-20 2.29756e-26
6035 202 0.0015 -0.332631 -1.87017 0 -2.67686e-12 4.5247e-12 0 5.48788e-21 3.59402e-26
7999 267 0.0015 -0.23674 -1.87052 0 -7.5428e-12 -4.13372e-12 0 0 1.24659e-26
7998 267 0.0015 -0.234415 -1.8714 0 7.20277e-12 6.90023e-12 0 0 6.65243e-27
1481 50 0.0015 0.579128 -1.8714 0 -1.98177e-12 -2.5783e-12 0 0 4.09055e-26
3529 118 0.0015 0.665887 -1.87136 0 1.47147e-12 4.99855e-12 0 1.57149e-20 1.14694e-26
2650 89 0.0015 -0.6044 -1.86922 0 7.21348e-12 -5.14331e-12 0 0 5.10695e-26
10303 344 0.0015 -0.49619 -1.86852 0 -4.22736e-12 -1.03714e-12 0 1.68424e-20 2.24872e-26
10302 344 0.0015 -0.493366 -1.86943 0 -4.00771e-12 -2.56139e-12 0 3.36849e-20 3.83771e-27
6087 203 0.0015 -0.434641 -1.86821 0 -1.62346e-11 1.44867e-11 0 4.96948e-20 1.35945e-25
6085 203 0.0015 -0.431008 -1.86994 0 -5.18723e-12 -3.21287e-12 0 0 7.95084e-26
6086 203 0.0015 -0.432824 -1.86908 0 2.16752e-11 -1.01533e-11 0 2.48474e-20 1.64633e-25
8001 267 0.0015 -0.241392 -1.86876 0 -2.87612e-12 -1.88364e-12 0 1.00459e-20 7.52112e-27
8000 267 0.0015 -0.239066 -1.86964 0 8.59098e-12 2.90414e-12 0 1.00459e-20 1.71716e-26
8012 268 0.0015 -0.171924 -1.86923 0 -6.01987e-13 -1.61139e-12 0 0 5.75104e-27
10332 345 0.0015 -0.0679644 -1.86909 0 -8.31009e-13 2.16107e-12 0 0 2.71551e-27
1957 66 0.0015 0.0127576 -1.86871 0 -5.82112e-14 -1.11697e-12 0 0 1.74873e-27
10269 343 0.0015 0.423451 -1.86924 0 -1.9291e-12 -7.35351e-12 0 0 4.25052e-26
1482 50 0.0015 0.581354 -1.86848 0 -2.07861e-12 -2.24105e-12 0 6.81478e-21 6.87045e-27
3528 118 0.0015 0.668424 -1.86944 0 -3.56399e-12 -5.08358e-12 0 3.14298e-20 1.60301e-26
2651 89 0.0015 -0.608121 -1.86636 0 -7.78143e-12 5.34286e-12 0 0 5.81568e-26
10305 344 0.0015 -0.501838 -1.8667 0 -4.95006e-12 -1.47519e-12 0 1.68424e-20 2.22875e-26
10304 344 0.0015 -0.499014 -1.86761 0 1.11534e-11 1.44398e-12 0 0 4.26732e-26
6089 203 0.0015 -0.438274 -1.86649 0 6.03209e-13 9.24962e-12 0 4.96948e-20 6.78129e-27
6088 203 0.0015 -0.436457 -1.86735 0 1.8139e-12 -1.20535e-11 0 7.45423e-20 2.63591e-26
8004 267 0.0015 -0.248369 -1.86612 0 -6.91769e-13 1.36532e-11 0 2.00918e-20 1.55115e-26
8003 267 0.0015 -0.246044 -1.867 0 -4.43731e-12 -7.71951e-12 0 1.00459e-20 3.87546e-27
8002 267 0.0015 -0.243718 -1.86788 0 2.11786e-12 2.38763e-12 0 1.00459e-20 4.24687e-27
8046 269 0.0015 0.152008 -1.86695 0 2.16504e-13 -2.86882e-12 0 3.6872e-21 8.06864e-27
6004 201 0.0015 0.499982 -1.86721 0 -8.24779e-13 -2.44364e-12 0 0 2.69513e-26
3527 118 0.0015 0.670962 -1.86752 0 -4.566e-13 -1.10445e-13 0 3.14298e-20 1.18044e-26
10307 344 0.0015 -0.507486 -1.86489 0 1.06834e-12 2.01216e-12 0 1.68424e-20 1.44303e-27
10306 344 0.0015 -0.504662 -1.8658 0 -1.8522e-12 7.12534e-13 0 1.68424e-20 1.64274e-27
6090 203 0.0015 -0.440091 -1.86563 0 1.85073e-12 -4.22683e-12 0 2.48474e-20 6.77899e-27
8006 267 0.0015 -0.253021 -1.86436 0 9.19489e-12 2.26821e-12 0 2.00918e-20 3.88648e-26
8005 267 0.0015 -0.250695 -1.86524 0 5.34663e-13 -1.09302e-11 0 3.01377e-20 1.51247e-26
10333 345 0.0015 -0.0686412 -1.86599 0 3.48676e-14 5.71417e-13 0 0 6.49245e-27
10203 341 0.0015 0.288506 -1.8653 0 2.92999e-13 -2.94012e-12 0 7.37441e-21 1.45495e-26
4532 152 0.0015 0.364868 -1.86469 0 -4.62777e-13 3.01091e-12 0 0 1.35832e-26
10270 343 0.0015 0.424172 -1.86529 0 1.85497e-12 1.08479e-11 0 0 6.80843e-26
1483 50 0.0015 0.58358 -1.86557 0 -1.01792e-12 -2.36476e-12 0 6.81478e-21 9.34437e-27
3526 118 0.0015 0.673499 -1.86561 0 1.76905e-12 2.22023e-12 0 4.71447e-20 6.88419e-27
2652 89 0.0015 -0.611842 -1.86351 0 9.02661e-12 -6.7869e-12 0 0 8.40298e-26
10310 344 0.0015 -0.515959 -1.86217 0 4.16385e-12 -7.76569e-13 0 0 1.59335e-26
10309 344 0.0015 -0.513134 -1.86307 0 -6.62292e-12 2.82465e-12 0 0 2.22541e-26
10308 344 0.0015 -0.51031 -1.86398 0 2.43914e-12 -3.81561e-12 0 0 6.76989e-27
6036 202 0.0015 -0.337434 -1.86244 0 2.07579e-12 -3.47111e-12 0 2.74394e-21 2.08048e-26
8008 267 0.0015 -0.257673 -1.8626 0 4.97904e-13 -1.42665e-12 0 1.00459e-20 1.65707e-26
8007 267 0.0015 -0.255347 -1.86348 0 -1.12286e-11 2.56373e-12 0 2.00918e-20 4.93853e-26
10334 345 0.0015 -0.0693181 -1.86288 0 1.50989e-12 -6.73827e-12 0 1.57149e-20 2.39467e-26
1958 66 0.0015 0.0122775 -1.86393 0 -4.00153e-13 5.45589e-12 0 0 2.66949e-26
1484 50 0.0015 0.585807 -1.86266 0 2.07518e-12 3.62302e-12 0 6.81478e-21 1.0443e-26
3525 118 0.0015 0.676036 -1.86369 0 -1.76905e-12 -2.22023e-12 0 4.71447e-20 6.88419e-27
2653 89 0.0015 -0.615563 -1.86065 0 -8.53477e-12 6.83183e-12 0 5.32605e-21 7.94357e-26
10312 344 0.0015 -0.521607 -1.86035 0 -6.63872e-12 1.37741e-12 0 0 2.3762e-26
10311 344 0.0015 -0.518783 -1.86126 0 5.37467e-12 -6.32465e-13 0 0 2.16222e-26
8010 267 0.0015 -0.262324 -1.86085 0 1.27935e-12 -1.15129e-12 0 0 1.77685e-27
8009 267 0.0015 -0.259998 -1.86172 0 1.86377e-12 1.13952e-12 0 1.00459e-20 7.76372e-27
8047 269 0.0015 0.151313 -1.86021 0 -2.66803e-14 1.0473e-12 0 0 2.56775e-27
10271 343 0.0015 0.424893 -1.86133 0 -7.27092e-13 -5.8186e-12 0 0 2.92645e-26
3524 118 0.0015 0.678573 -1.86178 0 4.566e-13 1.10445e-13 0 3.14298e-20 1.18044e-26
10314 344 0.0015 -0.527255 -1.85854 0 8.6639e-12 -1.37298e-12 0 0 3.57539e-26
10313 344 0.0015 -0.524431 -1.85944 0 -4.69608e-12 -1.754e-13 0 0 3.22311e-26
10335 345 0.0015 -0.0699949 -1.85978 0 -1.02983e-12 6.20341e-12 0 1.57149e-20 2.18937e-26
1959 66 0.0015 0.0117974 -1.85915 0 7.83658e-13 -9.21544e-12 0 0 5.72858e-26
4771 160 0.0015 0.0785585 -1.85825 0 1.3434e-13 -4.6765e-12 0 0 5.59419e-26
10204 341 0.0015 0.287705 -1.85857 0 -5.59438e-13 5.08727e-12 0 3.6872e-21 2.48197e-26
6005 201 0.0015 0.502997 -1.85945 0 -3.66538e-13 -5.81234e-13 0 0 1.32236e-27
1485 50 0.0015 0.588033 -1.85975 0 -4.21193e-13 -7.00814e-13 0 0 1.4609e-27
3523 118 0.0015 0.681111 -1.85986 0 3.56399e-12 5.08358e-12 0 3.14298e-20 1.60301e-26
2654 89 0.0015 -0.619284 -1.8578 0 3.93126e-12 -3.1409e-12 0 5.32605e-21 2.86721e-26
10316 344 0.0015 -0.532903 -1.85672 0 -4.21685e-12 -2.73274e-12 0 0 4.54826e-27
10315 344 0.0015 -0.530079 -1.85763 0 -9.1784e-13 2.12099e-12 0 0 6.70033e-27
8013 268 0.0015 -0.167482 -1.85688 0 -5.03661e-13 -1.48298e-12 0 0 1.92264e-26
10336 345 0.0015 -0.0706718 -1.85667 0 -5.89402e-13 1.64484e-12 0 1.57149e-20 1.16205e-26
4533 152 0.0015 0.36352 -1.85607 0 -1.13239e-13 8.1121e-13 0 0 8.23754e-27
10272 343 0.0015 0.425614 -1.85738 0 2.21393e-13 -4.86295e-14 0 0 1.44087e-27
1486 50 0.0015 0.59026 -1.85684 0 4.21193e-13 7.00814e-13 0 0 1.4609e-27
3522 118 0.0015 0.683648 -1.85795 0 -1.47147e-12 -4.99855e-12 0 1.57149e-20 1.14694e-26
3521 118 0.0015 0.686185 -1.85603 0 -5.53195e-13 4.58652e-12 0 1.57149e-20 2.86098e-27
2655 89 0.0015 -0.623004 -1.85494 0 1.22741e-12 -1.36057e-12 0 5.32605e-21 6.21299e-27
10318 344 0.0015 -0.538552 -1.85491 0 1.01376e-11 -2.97705e-12 0 1.68424e-20 6.35704e-26
10317 344 0.0015 -0.535727 -1.85581 0 9.08262e-13 2.62884e-12 0 0 6.87761e-27
6037 202 0.0015 -0.342237 -1.85471 0 -1.27534e-12 2.08048e-12 0 2.74394e-21 9.6181e-27
1960 66 0.0015 0.0113172 -1.85437 0 -1.01397e-12 1.12664e-11 0 0 8.67793e-26
3520 118 0.0015 0.688722 -1.85412 0 5.87387e-12 -3.1108e-12 0 1.57149e-20 2.03512e-26
2656 89 0.0015 -0.626725 -1.85209 0 -1.07927e-12 1.92572e-12 0 0 6.07148e-27
10320 344 0.0015 -0.5442 -1.85309 0 2.09027e-12 1.93707e-13 0 1.68424e-20 3.07187e-27
10319 344 0.0015 -0.541376 -1.854 0 -1.0521e-11 1.51705e-12 0 1.68424e-20 6.33053e-26
10337 345 0.0015 -0.0713486 -1.85356 0 4.6457e-13 -5.16994e-12 0 0 1.25914e-26
8048 269 0.0015 0.150617 -1.85348 0 -2.53164e-13 1.96187e-12 0 3.6872e-21 6.53556e-27
10273 343 0.0015 0.426335 -1.85342 0 5.69085e-14 4.1467e-12 0 0 1.27642e-26
1487 50 0.0015 0.592486 -1.85392 0 -2.07518e-12 -3.62302e-12 0 6.81478e-21 1.0443e-26
3519 118 0.0015 0.69126 -1.8522 0 -1.24394e-11 -6.04193e-13 0 1.57149e-20 4.75163e-26
10338 345 0.0015 -0.0720254 -1.85046 0 1.28407e-12 3.08326e-13 0 0 6.08291e-27
10205 341 0.0015 0.286904 -1.85184 0 3.51483e-13 -2.73183e-12 0 0 1.0649e-26
6006 201 0.0015 0.506013 -1.85168 0 -4.92457e-13 -1.5955e-12 0 0 5.8526e-27
1488 50 0.0015 0.594712 -1.85101 0 1.01792e-12 2.36476e-12 0 6.81478e-21 9.34437e-27
3518 118 0.0015 0.693797 -1.85028 0 3.95299e-12 -2.87623e-12 0 1.57149e-20 4.65604e-26
2657 89 0.0015 -0.630446 -1.84923 0 -2.74629e-12 5.85527e-13 0 5.32605e-21 7.57964e-27
1961 66 0.0015 0.0108371 -1.84959 0 1.08669e-12 -1.12889e-11 0 5.20104e-21 8.71712e-26
4772 160 0.0015 0.0782973 -1.84905 0 -2.29306e-13 7.93214e-12 0 0 8.30549e-26
10274 343 0.0015 0.427056 -1.84946 0 -1.22806e-12 -1.09412e-11 0 0 7.82922e-26
1489 50 0.0015 0.596939 -1.8481 0 2.07861e-12 2.24105e-12 0 6.81478e-21 6.87045e-27
3517 118 0.0015 0.696334 -1.84837 0 1.07009e-11 1.0003e-11 0 1.57149e-20 1.08655e-25
2658 89 0.0015 -0.634167 -1.84638 0 3.3807e-12 -1.09955e-12 0 5.32605e-21 8.71661e-27
6038 202 0.0015 -0.34704 -1.84697 0 1.19623e-12 -1.93299e-12 0 0 8.11496e-27
10339 345 0.0015 -0.0727023 -1.84735 0 -2.65988e-12 6.14848e-12 0 0 2.27701e-26
8049 269 0.0015 0.149922 -1.84674 0 9.42175e-14 -7.53169e-13 0 3.6872e-21 8.79063e-27
6541 219 0.0015 0.213251 -1.84656 0 -1.78776e-13 2.48757e-12 0 3.51396e-21 1.22817e-26
4534 152 0.0015 0.362172 -1.84745 0 3.75441e-13 -2.65195e-12 0 0 9.15024e-27
3516 118 0.0015 0.698871 -1.84645 0 -1.10531e-11 -7.9747e-12 0 1.57149e-20 1.02167e-25
8014 268 0.0015 -0.163039 -1.84452 0 1.5909e-12 4.47644e-12 0 1.90242e-21 4.13708e-26
10340 345 0.0015 -0.0733791 -1.84424 0 3.14668e-13 9.94433e-13 0 1.57149e-20 4.78316e-26
1962 66 0.0015 0.010357 -1.84481 0 -1.44466e-13 1.39799e-12 0 5.20104e-21 4.95202e-26
10206 341 0.0015 0.286103 -1.84511 0 -3.07129e-13 2.16735e-12 0 0 6.26229e-27
10275 343 0.0015 0.427777 -1.84551 0 1.93871e-12 1.50785e-11 0 0 1.28759e-25
1490 50 0.0015 0.599165 -1.84519 0 1.98177e-12 2.5783e-12 0 0 4.09055e-26
3515 118 0.0015 0.701409 -1.84454 0 7.00339e-12 3.65035e-12 0 1.57149e-20 2.71629e-26
2659 89 0.0015 -0.637888 -1.84352 0 -1.27166e-12 -3.2762e-13 0 5.32605e-21 1.18098e-27
6007 201 0.0015 0.509028 -1.84391 0 2.15162e-12 5.66532e-12 0 0 5.21266e-26
1491 50 0.0015 0.601391 -1.84228 0 -5.62456e-12 -6.51904e-12 0 0 4.22222e-26
3514 118 0.0015 0.703946 -1.84262 0 -8.87483e-12 -4.97063e-12 0 0 4.56698e-26
2660 89 0.0015 -0.641609 -1.84066 0 -4.78099e-12 4.6117e-12 0 0 5.45125e-26
10341 345 0.0015 -0.074056 -1.84114 0 4.60824e-12 -1.87732e-11 0 1.57149e-20 1.93499e-25
1963 66 0.0015 0.00987681 -1.84004 0 -4.22864e-13 4.16558e-12 0 5.20104e-21 1.73361e-26
10276 343 0.0015 0.428498 -1.84155 0 -1.93871e-12 -1.50785e-11 0 0 1.28759e-25
3513 118 0.0015 0.706483 -1.84071 0 8.74195e-12 5.27013e-12 0 0 4.6247e-26
6039 202 0.0015 -0.351842 -1.83924 0 -2.53851e-12 4.14631e-12 0 0 3.26165e-26
10342 345 0.0015 -0.0747328 -1.83803 0 -3.43288e-12 1.12547e-11 0 1.57149e-20 1.68833e-25
4773 160 0.0015 0.0780361 -1.83985 0 1.10366e-13 -3.71692e-12 0 0 2.76574e-26
8050 269 0.0015 0.149226 -1.84 0 3.20096e-13 -3.13836e-12 0 3.6872e-21 1.0218e-26
6542 219 0.0015 0.21269 -1.83947 0 -5.36363e-15 -6.94513e-13 0 7.02791e-21 1.86939e-26
10207 341 0.0015 0.285302 -1.83839 0 7.75276e-13 -6.63562e-12 0 0 5.1193e-26
4535 152 0.0015 0.360823 -1.83883 0 -1.58893e-13 1.36056e-12 0 0 2.85178e-27
1492 50 0.0015 0.603618 -1.83936 0 7.54237e-13 -1.0361e-12 0 0 1.80924e-26
3512 118 0.0015 0.70902 -1.83879 0 -4.98428e-12 -2.6351e-12 0 0 1.84711e-26
2661 89 0.0015 -0.64533 -1.83781 0 1.12072e-11 -8.66683e-12 0 0 1.31736e-25
10277 343 0.0015 0.429219 -1.8376 0 1.22806e-12 1.09412e-11 0 0 7.82922e-26
6008 201 0.0015 0.512043 -1.83614 0 -3.50535e-12 -9.00077e-12 0 0 1.08578e-25
1493 50 0.0015 0.605844 -1.83645 0 3.83392e-13 2.68057e-12 0 6.81478e-21 1.07958e-26
3511 118 0.0015 0.711558 -1.83688 0 1.13629e-12 3.79295e-13 0 0 1.13843e-27
2662 89 0.0015 -0.649051 -1.83495 0 -6.74088e-12 4.65111e-12 0 5.32605e-21 7.75461e-26
10343 345 0.0015 -0.0754097 -1.83493 0 -1.20149e-12 9.95853e-12 0 0 6.02818e-26
1964 66 0.0015 0.00939668 -1.83526 0 -5.70036e-13 5.79836e-12 0 5.20104e-21 5.63194e-26
2663 89 0.0015 -0.652772 -1.8321 0 -5.08233e-13 5.0755e-13 0 5.32605e-21 2.14832e-27
10171 340 0.0015 -0.234195 -1.83312 0 1.2637e-12 -1.82989e-12 0 0 1.07384e-26
8015 268 0.0015 -0.158597 -1.83216 0 -1.31301e-12 -3.66333e-12 0 3.80484e-21 3.02424e-26
8051 269 0.0015 0.14853 -1.83326 0 -4.7627e-13 4.78102e-12 0 0 2.2179e-26
6543 219 0.0015 0.212128 -1.83239 0 8.79656e-14 -9.13968e-14 0 7.02791e-21 1.21454e-26
10278 343 0.0015 0.429939 -1.83364 0 -5.69085e-14 -4.1467e-12 0 0 1.27642e-26
1494 50 0.0015 0.60807 -1.83354 0 -1.12073e-12 -2.39824e-12 0 2.04443e-20 1.22838e-26
6040 202 0.0015 -0.356645 -1.83151 0 3.4262e-12 -5.61459e-12 0 0 5.47742e-26
10344 345 0.0015 -0.0760865 -1.83182 0 9.84731e-13 -8.52055e-12 0 0 5.71184e-26
1965 66 0.0015 0.00891654 -1.83048 0 1.0877e-12 -1.06733e-11 0 1.04021e-20 8.00183e-26
4774 160 0.0015 0.0777749 -1.83066 0 -2.95709e-14 9.16312e-13 0 2.71488e-21 1.07414e-27
10208 341 0.0015 0.284501 -1.83166 0 -9.8502e-13 9.03506e-12 0 0 7.82029e-26
4536 152 0.0015 0.359475 -1.83021 0 -3.06385e-14 -1.44637e-13 0 0 3.73333e-28
1495 50 0.0015 0.610297 -1.83063 0 4.51251e-12 5.46447e-12 0 2.04443e-20 2.55849e-26
2664 89 0.0015 -0.656493 -1.82924 0 1.81631e-12 -1.14893e-12 0 5.32605e-21 3.02259e-27
10345 345 0.0015 -0.0767633 -1.82871 0 6.96805e-13 -1.71979e-12 0 1.57149e-20 5.053e-27
10279 343 0.0015 0.43066 -1.82968 0 -2.21393e-13 4.86295e-14 0 0 1.44087e-27
6009 201 0.0015 0.515058 -1.82837 0 2.25825e-12 5.76864e-12 0 0 6.46391e-26
2665 89 0.0015 -0.660213 -1.82639 0 3.4379e-13 -1.5674e-13 0 5.32605e-21 3.43382e-27
10172 340 0.0015 -0.238704 -1.82673 0 -2.74192e-12 4.00237e-12 0 0 2.57286e-26
8052 269 0.0015 0.147835 -1.82652 0 3.61567e-13 -3.92536e-12 0 0 1.69103e-26
1496 50 0.0015 0.612523 -1.82772 0 -5.32777e-12 -6.20709e-12 0 1.36296e-20 3.42555e-26
10346 345 0.0015 -0.0774402 -1.82561 0 8.93756e-13 7.438e-14 0 1.57149e-20 1.01468e-26
1966 66 0.0015 0.0084364 -1.8257 0 -4.85288e-13 4.47721e-12 0 1.56031e-20 2.43214e-26
6544 219 0.0015 0.211567 -1.8253 0 4.95131e-13 -6.92468e-12 0 7.02791e-21 5.99159e-26
10209 341 0.0015 0.2837 -1.82493 0 4.36526e-13 -4.58889e-12 0 0 3.32917e-26
10280 343 0.0015 0.431381 -1.82573 0 7.27092e-13 5.8186e-12 0 0 2.92645e-26
1497 50 0.0015 0.614749 -1.8248 0 4.30895e-12 5.95866e-12 0 0 2.87828e-26
2666 89 0.0015 -0.663934 -1.82353 0 -3.12656e-12 1.83971e-12 0 5.32605e-21 9.05208e-27
6041 202 0.0015 -0.361448 -1.82377 0 -2.42171e-12 3.97476e-12 0 2.74394e-21 3.33355e-26
10347 345 0.0015 -0.078117 -1.8225 0 -4.50532e-12 1.19469e-11 0 1.57149e-20 9.67901e-26
2667 89 0.0015 -0.667655 -1.82068 0 6.31149e-12 -4.2196e-12 0 5.32605e-21 4.3288e-26
10173 340 0.0015 -0.243212 -1.82034 0 2.73233e-12 -4.04532e-12 0 0 2.6016e-26
1967 66 0.0015 0.00795626 -1.82092 0 1.66732e-16 3.92217e-13 0 1.56031e-20 6.07664e-28
4775 160 0.0015 0.0775136 -1.82146 0 -4.63974e-14 1.7162e-12 0 5.42976e-21 1.25881e-26
4537 152 0.0015 0.358127 -1.82159 0 1.02928e-13 -4.05794e-13 0 0 2.10869e-28
10281 343 0.0015 0.432102 -1.82177 0 -1.85497e-12 -1.08479e-11 0 0 6.80843e-26
6010 201 0.0015 0.518074 -1.8206 0 3.2214e-13 9.53793e-13 0 0 1.17301e-26
1498 50 0.0015 0.616976 -1.82189 0 9.97467e-13 -1.28482e-13 0 0 2.01621e-26
8016 268 0.0015 -0.154154 -1.81981 0 3.56842e-13 9.96249e-13 0 3.80484e-21 6.90968e-27
10348 345 0.0015 -0.0787939 -1.81939 0 5.2812e-12 -1.73709e-11 0 0 1.46859e-25
8053 269 0.0015 0.147139 -1.81978 0 3.48348e-13 -2.56123e-12 0 0 2.94749e-26
6545 219 0.0015 0.211005 -1.81821 0 -4.39652e-13 5.73621e-12 0 3.51396e-21 5.47059e-26
10210 341 0.0015 0.282899 -1.8182 0 3.79765e-13 -2.88534e-12 0 0 2.12522e-26
1499 50 0.0015 0.619202 -1.81898 0 -2.16017e-12 -1.73111e-12 0 0 1.21903e-26
2668 89 0.0015 -0.671376 -1.81782 0 -1.14806e-11 8.28775e-12 0 0 1.38784e-25
6042 202 0.0015 -0.366251 -1.81604 0 -2.5155e-13 3.64429e-13 0 5.48788e-21 1.1087e-26
10349 345 0.0015 -0.0794707 -1.81629 0 -1.379e-12 4.49159e-12 0 0 6.46478e-26
1968 66 0.0015 0.00747613 -1.81614 0 -3.14382e-13 2.7792e-12 0 1.56031e-20 1.6202e-26
10282 343 0.0015 0.432823 -1.81781 0 1.9291e-12 7.35351e-12 0 0 4.25052e-26
1500 50 0.0015 0.621428 -1.81607 0 -2.97808e-13 -6.54814e-13 0 0 5.00451e-28
2669 89 0.0015 -0.675097 -1.81497 0 1.11531e-11 -8.16801e-12 0 0 1.3434e-25
5941 199 0.0015 0.740778 -1.81551 0 1.78311e-13 7.96184e-13 0 0 1.7756e-27
2670 89 0.0015 -0.678818 -1.81211 0 -4.00353e-12 2.93026e-12 0 0 3.20521e-26
10174 340 0.0015 -0.24772 -1.81396 0 -1.37435e-12 2.13653e-12 0 0 1.12019e-26
10350 345 0.0015 -0.0801475 -1.81318 0 -7.15453e-13 3.15771e-12 0 0 9.25688e-27
4776 160 0.0015 0.0772524 -1.81226 0 6.12849e-14 -2.34215e-12 0 8.14464e-21 1.2133e-26
8054 269 0.0015 0.146443 -1.81304 0 -7.74351e-13 6.34417e-12 0 3.6872e-21 3.96848e-26
4538 152 0.0015 0.356779 -1.81297 0 1.96802e-13 -1.43142e-12 0 0 6.80557e-27
10283 343 0.0015 0.433544 -1.81386 0 -5.36658e-13 1.94132e-12 0 0 1.62282e-26
6011 201 0.0015 0.521089 -1.81283 0 -1.42604e-12 -3.91773e-12 0 0 2.01322e-26
1969 66 0.0015 0.00699599 -1.81136 0 8.95441e-13 -9.03661e-12 0 1.04021e-20 5.83136e-26
6546 219 0.0015 0.210443 -1.81113 0 -1.24641e-13 1.54595e-12 0 3.51396e-21 8.94999e-27
10211 341 0.0015 0.282098 -1.81148 0 -5.06677e-13 4.7873e-12 0 0 2.50362e-26
6043 202 0.0015 -0.371054 -1.8083 0 1.94149e-12 -3.13805e-12 0 8.23182e-21 1.73464e-26
10284 343 0.0015 0.434265 -1.8099 0 -6.26436e-14 -4.61586e-12 0 0 1.4626e-26
10175 340 0.0015 -0.252228 -1.80757 0 -1.00585e-13 4.68338e-14 0 0 4.9141e-28
8017 268 0.0015 -0.149712 -1.80745 0 8.60905e-14 2.25408e-13 0 1.90242e-21 3.0987e-28
1970 66 0.0015 0.00651585 -1.80658 0 -1.55922e-12 1.63138e-11 0 1.04021e-20 1.96373e-25
8055 269 0.0015 0.145748 -1.8063 0 4.57896e-13 -3.23904e-12 0 7.37441e-21 1.36806e-26
5942 199 0.0015 0.743061 -1.80618 0 7.37607e-14 1.45595e-13 0 0 4.3106e-27
6547 219 0.0015 0.209882 -1.80404 0 2.78555e-13 -3.49717e-12 0 0 1.25355e-26
10212 341 0.0015 0.281297 -1.80475 0 -4.3088e-13 2.89436e-12 0 0 4.0637e-26