ITEM: TIMESTEP
38270
ITEM: NUMBER OF ATOMS
10500
ITEM: BOX BOUNDS pp pp pp
-1.0249999999999999e+00 1.0249999999999999e+00
-2.0000000000000000e+00 2.0000000000000000e+00
-5.0000000000000003e-02 5.0000000000000003e-02
ITEM: ATOMS id type radius x y z fx fy fz c_bendingE c_stretchingE
10321 345 0.0015 -0.0605191 -1.90326 0 1.49096e-13 -7.83879e-13 0 0 5.61872e-28
6031 202 0.0015 -0.31342 -1.90111 0 -7.71194e-14 1.19059e-13 0 0 5.08669e-29
10322 345 0.0015 -0.061196 -1.90016 0 1.0047e-12 -4.45387e-12 0 0 2.59644e-26
8041 269 0.0015 0.155487 -1.90065 0 -2.61499e-13 2.49306e-12 0 0 1.18251e-26
10261 343 0.0015 0.417684 -1.90089 0 5.50136e-13 3.06313e-12 0 1.24237e-20 1.0819e-26
1471 50 0.0015 0.556864 -1.90052 0 4.12335e-12 4.89826e-12 0 6.81478e-21 4.16496e-26
10323 345 0.0015 -0.0618728 -1.89705 0 -2.50607e-12 1.12789e-11 0 1.57149e-20 5.92455e-26
1951 66 0.0015 0.0156385 -1.89738 0 -6.011e-14 5.10145e-13 0 5.20104e-21 3.51928e-28
10262 343 0.0015 0.418405 -1.89694 0 -1.10164e-12 -6.03192e-12 0 2.48474e-20 2.10038e-26
1472 50 0.0015 0.559091 -1.8976 0 -4.87471e-12 -5.25752e-12 0 1.36296e-20 4.22098e-26
2641 89 0.0015 -0.570912 -1.89491 0 2.35966e-12 -1.88278e-12 0 0 1.18681e-26
1473 50 0.0015 0.561317 -1.89469 0 -4.52315e-13 -1.50482e-12 0 1.36296e-20 5.54194e-27
2642 89 0.0015 -0.574633 -1.89206 0 -2.83046e-12 2.26332e-12 0 0 1.23453e-26
6032 202 0.0015 -0.318223 -1.89337 0 -2.66187e-13 4.3749e-13 0 0 1.1322e-27
10324 345 0.0015 -0.0625496 -1.89394 0 3.06838e-12 -1.30277e-11 0 1.57149e-20 7.95182e-26
1952 66 0.0015 0.0151583 -1.8926 0 1.8634e-13 -1.77374e-12 0 5.20104e-21 2.5033e-27
8042 269 0.0015 0.154791 -1.89391 0 7.55636e-13 -7.133e-12 0 0 5.27994e-26
10263 343 0.0015 0.419126 -1.89298 0 9.01607e-13 4.68381e-12 0 2.48474e-20 1.36057e-26
3540 118 0.0015 0.637977 -1.89243 0 -2.14484e-12 -2.06681e-12 0 0 7.7222e-27
6061 203 0.0015 -0.387409 -1.89062 0 -2.61596e-12 2.74531e-12 0 2.48474e-20 6.99984e-27
10325 345 0.0015 -0.0632265 -1.89084 0 -3.24092e-12 1.30306e-11 0 1.57149e-20 7.99518e-26
10231 342 0.0015 0.215 -1.89 0 8.99523e-13 0 0 0 1.54931e-28
10232 342 0.0015 0.21569 -1.89 0 -4.16586e-12 0 0 0 2.19852e-27
10233 342 0.0015 0.216379 -1.89 0 6.44779e-12 0 0 0 3.98232e-27
10234 342 0.0015 0.217069 -1.89 0 -5.39693e-12 0 0 0 2.87922e-27
10235 342 0.0015 0.217759 -1.89 0 4.09276e-12 0 0 0 1.61561e-27
10236 342 0.0015 0.218448 -1.89 0 -4.8174e-12 0 0 0 2.33113e-27
10237 342 0.0015 0.219138 -1.89 0 6.59267e-12 0 0 0 4.21115e-27
10238 342 0.0015 0.219828 -1.89 0 -5.79581e-12 0 0 0 3.43514e-27
10239 342 0.0015 0.220517 -1.89 0 1.77483e-12 0 0 0 9.06003e-28
10240 342 0.0015 0.221207 -1.89 0 -7.26641e-14 0 0 0 6.3241e-29
10241 342 0.0015 0.221897 -1.89 0 1.99238e-12 0 0 0 4.98245e-28
10242 342 0.0015 0.222586 -1.89 0 -3.00635e-12 0 0 0 8.66606e-28
10243 342 0.0015 0.223276 -1.89 0 1.1593e-12 0 0 0 4.22381e-28
10244 342 0.0015 0.223966 -1.89 0 1.12219e-12 0 0 0 1.4776e-28
10245 342 0.0015 0.224655 -1.89 0 -1.4484e-12 0 0 0 2.05088e-28
10246 342 0.0015 0.225345 -1.89 0 1.4484e-12 0 0 0 2.05088e-28
10247 342 0.0015 0.226034 -1.89 0 -1.12219e-12 0 0 0 1.4776e-28
10248 342 0.0015 0.226724 -1.89 0 -1.1593e-12 0 0 0 4.22381e-28
10249 342 0.0015 0.227414 -1.89 0 3.00635e-12 0 0 0 8.66606e-28
10250 342 0.0015 0.228103 -1.89 0 -1.99238e-12 0 0 0 4.98245e-28
10251 342 0.0015 0.228793 -1.89 0 7.26641e-14 0 0 0 6.3241e-29
10252 342 0.0015 0.229483 -1.89 0 -1.77483e-12 0 0 0 9.06003e-28
10253 342 0.0015 0.230172 -1.89 0 5.79581e-12 0 0 0 3.43514e-27
10254 342 0.0015 0.230862 -1.89 0 -6.59267e-12 0 0 0 4.21115e-27
10255 342 0.0015 0.231552 -1.89 0 4.8174e-12 0 0 0 2.33113e-27
10256 342 0.0015 0.232241 -1.89 0 -4.09276e-12 0 0 0 1.61561e-27
10257 342 0.0015 0.232931 -1.89 0 5.39693e-12 0 0 0 2.87922e-27
10258 342 0.0015 0.233621 -1.89 0 -6.44779e-12 0 0 0 3.98232e-27
10259 342 0.0015 0.23431 -1.89 0 4.16586e-12 0 0 0 2.19852e-27
10260 342 0.0015 0.235 -1.89 0 -8.99523e-13 0 0 0 1.54931e-28
6001 201 0.0015 0.490936 -1.89052 0 -1.00356e-13 -2.86423e-13 0 0 2.12975e-28
1474 50 0.0015 0.563543 -1.89178 0 9.41732e-13 1.998e-12 0 6.81478e-21 4.98456e-27
3539 118 0.0015 0.640514 -1.89051 0 3.09779e-12 3.49625e-12 0 0 1.0045e-26
2643 89 0.0015 -0.578354 -1.8892 0 -1.40022e-13 1.75689e-13 0 0 1.36002e-27
6063 203 0.0015 -0.391043 -1.8889 0 5.00639e-14 6.57574e-12 0 2.48474e-20 7.18724e-27
6064 203 0.0015 -0.392859 -1.88804 0 -4.74972e-12 -1.63034e-12 0 0 4.8565e-27
6062 203 0.0015 -0.389226 -1.88976 0 4.33015e-12 -7.32252e-12 0 2.48474e-20 1.38835e-26
10264 343 0.0015 0.419847 -1.88903 0 -9.92802e-13 -4.82305e-12 0 1.24237e-20 1.46665e-26
1475 50 0.0015 0.56577 -1.88887 0 7.56612e-13 -1.26765e-13 0 0 9.82527e-29
3538 118 0.0015 0.643052 -1.8886 0 6.38427e-13 -5.26582e-13 0 1.57149e-20 5.22903e-27
2644 89 0.0015 -0.582074 -1.88635 0 1.03158e-12 -9.51946e-13 0 0 1.3132e-27
6066 203 0.0015 -0.396492 -1.88631 0 -5.70154e-12 -6.70714e-12 0 4.96948e-20 2.26483e-27
6065 203 0.0015 -0.394676 -1.88717 0 6.2016e-12 1.75918e-12 0 2.48474e-20 6.77318e-27
7981 267 0.0015 -0.194876 -1.88635 0 -7.19178e-13 4.30663e-13 0 0 4.70143e-28
10326 345 0.0015 -0.0639033 -1.88773 0 9.10846e-13 -3.33352e-12 0 0 4.1097e-26
1953 66 0.0015 0.0146782 -1.88782 0 -5.89801e-14 7.2101e-13 0 1.04021e-20 2.54997e-27
8043 269 0.0015 0.154095 -1.88717 0 -7.90322e-13 7.3517e-12 0 3.6872e-21 5.49776e-26
3537 118 0.0015 0.645589 -1.88668 0 -4.53403e-12 -2.98533e-12 0 1.57149e-20 1.43718e-26
6068 203 0.0015 -0.400126 -1.88459 0 4.36264e-12 7.26114e-13 0 2.48474e-20 4.13245e-27
6067 203 0.0015 -0.398309 -1.88545 0 1.8794e-12 6.05269e-12 0 4.96948e-20 8.20782e-28
6033 202 0.0015 -0.323025 -1.88564 0 2.67196e-13 -4.40499e-13 0 0 1.13001e-27
7983 267 0.0015 -0.199527 -1.8846 0 -3.32581e-12 2.76704e-12 0 2.00918e-20 5.86702e-27
7982 267 0.0015 -0.197202 -1.88548 0 2.7086e-12 -1.676e-12 0 1.00459e-20 4.12817e-27
10327 345 0.0015 -0.0645802 -1.88463 0 1.0298e-12 -4.03467e-12 0 0 8.50779e-27
10265 343 0.0015 0.420568 -1.88507 0 1.55035e-12 7.23368e-12 0 0 3.11528e-26
1476 50 0.0015 0.567996 -1.88596 0 -1.45109e-12 -6.47391e-13 0 0 1.30408e-27
3536 118 0.0015 0.648126 -1.88476 0 4.00698e-12 2.32334e-12 0 1.57149e-20 1.23392e-26
2645 89 0.0015 -0.585795 -1.88349 0 2.54049e-13 3.90646e-14 0 0 1.16799e-27
6071 203 0.0015 -0.405575 -1.882 0 1.93743e-13 4.97631e-13 0 0 5.11099e-29
6070 203 0.0015 -0.403759 -1.88287 0 4.03095e-12 1.44912e-12 0 0 4.37314e-27
6069 203 0.0015 -0.401942 -1.88373 0 -7.61117e-12 -3.81789e-12 0 0 7.69925e-27
7985 267 0.0015 -0.204179 -1.88284 0 6.76155e-13 6.86576e-12 0 1.00459e-20 1.40821e-27
7984 267 0.0015 -0.201853 -1.88372 0 8.03875e-13 -4.16504e-12 0 2.00918e-20 2.3409e-27
1954 66 0.0015 0.0141981 -1.88304 0 -9.57006e-14 1.05084e-12 0 5.20104e-21 7.43654e-28
6002 201 0.0015 0.493952 -1.88275 0 1.08415e-12 2.88801e-12 0 0 1.81188e-26
1477 50 0.0015 0.570222 -1.88304 0 2.19114e-12 1.84055e-12 0 6.81478e-21 4.16336e-27
3535 118 0.0015 0.650663 -1.88285 0 -2.79048e-12 -7.63722e-13 0 0 3.40373e-27
2646 89 0.0015 -0.589516 -1.88064 0 -1.01877e-12 3.14402e-13 0 0 8.17262e-28
6073 203 0.0015 -0.409209 -1.88028 0 -1.46007e-11 -1.45732e-12 0 0 4.86673e-26
6072 203 0.0015 -0.407392 -1.88114 0 4.87755e-12 7.90698e-13 0 0 1.0165e-26
7988 267 0.0015 -0.211156 -1.8802 0 5.26745e-12 3.11485e-12 0 1.00459e-20 7.02339e-27
7987 267 0.0015 -0.208831 -1.88108 0 -5.97412e-12 2.16956e-12 0 0 1.39559e-26
7986 267 0.0015 -0.206505 -1.88196 0 2.24684e-12 -7.08478e-12 0 0 8.56501e-27
8011 268 0.0015 -0.176367 -1.88159 0 5.51374e-14 1.60355e-13 0 0 1.04857e-28
10328 345 0.0015 -0.065257 -1.88152 0 9.45405e-13 -5.25937e-12 0 0 4.15953e-26
8044 269 0.0015 0.1534 -1.88043 0 3.43185e-13 -3.06832e-12 0 3.6872e-21 1.42465e-26
10266 343 0.0015 0.421289 -1.88111 0 -1.2349e-12 -5.0913e-12 0 0 2.10437e-26
1478 50 0.0015 0.572449 -1.88013 0 -1.02371e-12 -4.75781e-13 0 6.81478e-21 3.45896e-27
3534 118 0.0015 0.653201 -1.88093 0 6.89292e-14 -8.1897e-13 0 1.57149e-20 6.54079e-27
10292 344 0.0015 -0.465124 -1.8785 0 -1.20382e-12 8.35684e-13 0 0 8.28994e-28
10291 344 0.0015 -0.4623 -1.87941 0 7.47499e-13 -3.2022e-13 0 0 5.40106e-28
6074 203 0.0015 -0.411025 -1.87942 0 1.59676e-11 -3.80073e-12 0 2.48474e-20 7.20734e-26
6075 203 0.0015 -0.412842 -1.87856 0 -7.57817e-12 1.02253e-11 0 4.96948e-20 4.03109e-26
7990 267 0.0015 -0.215808 -1.87844 0 1.60939e-12 1.09785e-12 0 2.00918e-20 5.10979e-28
7989 267 0.0015 -0.213482 -1.87932 0 -2.85388e-12 -3.25643e-12 0 1.00459e-20 7.97468e-28
10329 345 0.0015 -0.0659339 -1.87841 0 -1.78355e-12 8.87715e-12 0 0 4.47061e-26
1955 66 0.0015 0.0137179 -1.87827 0 1.12912e-13 -1.92648e-12 0 5.20104e-21 3.03354e-27
10201 341 0.0015 0.290108 -1.87875 0 3.23741e-13 -2.86904e-12 0 3.6872e-21 1.56872e-26
3533 118 0.0015 0.655738 -1.87902 0 4.54696e-12 2.70681e-12 0 1.57149e-20 1.26553e-26
2647 89 0.0015 -0.593237 -1.87778 0 1.83244e-13 5.40093e-13 0 0 3.21128e-28
10294 344 0.0015 -0.470773 -1.87669 0 2.49293e-12 9.06159e-13 0 0 2.78062e-27
10293 344 0.0015 -0.467948 -1.87759 0 7.97287e-15 -9.92922e-13 0 0 3.53856e-28
6077 203 0.0015 -0.416475 -1.87683 0 -1.61642e-12 4.58612e-12 0 2.48474e-20 1.19365e-26
6076 203 0.0015 -0.414658 -1.87769 0 -1.33223e-12 -8.42642e-12 0 4.96948e-20 7.40148e-27
6034 202 0.0015 -0.327828 -1.87791 0 2.78697e-13 -4.36789e-13 0 0 4.12588e-28
7992 267 0.0015 -0.22046 -1.87668 0 5.22705e-13 -2.87229e-12 0 1.00459e-20 2.61651e-27
7991 267 0.0015 -0.218134 -1.87756 0 -2.94511e-14 -3.09971e-13 0 1.00459e-20 1.80119e-28
10267 343 0.0015 0.42201 -1.87716 0 -3.73149e-13 -2.65141e-12 0 0 1.62969e-26
1479 50 0.0015 0.574675 -1.87722 0 -1.19088e-12 -2.73437e-12 0 1.36296e-20 5.39575e-27
3532 118 0.0015 0.658275 -1.8771 0 -1.91464e-12 4.40805e-13 0 1.57149e-20 1.17204e-26
2648 89 0.0015 -0.596958 -1.87493 0 -1.42039e-12 4.34061e-13 0 0 4.56495e-27
10296 344 0.0015 -0.476421 -1.87487 0 -4.23482e-13 8.22517e-13 0 0 1.77286e-28
10295 344 0.0015 -0.473597 -1.87578 0 -2.04887e-12 -1.44649e-12 0 0 2.79344e-27
6080 203 0.0015 -0.421925 -1.87425 0 7.93831e-12 3.30581e-12 0 0 9.57623e-27
6079 203 0.0015 -0.420108 -1.87511 0 -1.29242e-11 3.23005e-12 0 0 5.84594e-26
6078 203 0.0015 -0.418291 -1.87597 0 1.27669e-11 -6.07813e-12 0 0 6.32285e-26
7995 267 0.0015 -0.227437 -1.87404 0 3.5399e-12 5.08527e-12 0 2.00918e-20 1.41851e-27
7994 267 0.0015 -0.225111 -1.87492 0 -3.5338e-13 -7.57594e-12 0 2.00918e-20 4.08586e-27
7993 267 0.0015 -0.222785 -1.8758 0 -1.8104e-12 7.46918e-12 0 1.00459e-20 6.5874e-27
10330 345 0.0015 -0.0666107 -1.87531 0 -4.20471e-13 7.76303e-13 0 0 1.37225e-26
6003 201 0.0015 0.496967 -1.87498 0 -2.19611e-12 -5.80461e-12 0 0 4.5054e-26
1480 50 0.0015 0.576901 -1.87431 0 9.04038e-13 2.5514e-12 0 1.36296e-20 5.04178e-27
3531 118 0.0015 0.660812 -1.87519 0 -1.30449e-13 -1.56534e-12 0 0 3.66816e-27
2649 89 0.0015 -0.600679 -1.87207 0 3.89045e-12 -2.52129e-12 0 5.32605e-21 1.45351e-26
10299 344 0.0015 -0.484893 -1.87215 0 -6.53916e-12 3.39149e-12 0 0 2.26298e-26
10298 344 0.0015 -0.482069 -1.87306 0 6.74547e-12 -4.11115e-12 0 0 2.47597e-26
10297 344 0.0015 -0.479245 -1.87396 0 -2.39468e-12 2.23407e-12 0 0 9.13175e-27
6082 203 0.0015 -0.425558 -1.87252 0 4.56389e-12 1.65523e-12 0 0 3.57936e-27
6081 203 0.0015 -0.423741 -1.87338 0 -6.22569e-12 -4.94709e-12 0 0 3.8109e-27
7997 267 0.0015 -0.232089 -1.87228 0 -1.23804e-12 3.0135e-12 0 0 1.70989e-27
7996 267 0.0015 -0.229763 -1.87316 0 -2.01091e-12 -4.32027e-12 0 1.00459e-20 2.21693e-27
10331 345 0.0015 -0.0672875 -1.8722 0 1.29164e-12 -3.64124e-12 0 0 9.30179e-27
1956 66 0.0015 0.0132378 -1.87349 0 -3.19861e-13 4.23916e-12 0 0 1.3376e-26
8045 269 0.0015 0.152704 -1.87369 0 -6.3649e-14 4.12187e-13 0 3.6872e-21 2.49341e-28
10202 341 0.0015 0.289307 -1.87202 0 -6.45148e-13 5.83595e-12 0 3.6872e-21 3.24451e-26
4531 152 0.0015 0.366216 -1.8733 0 4.16983e-13 -2.68386e-12 0 5.72705e-21 1.78758e-26
10268 343 0.0015 0.422731 -1.8732 0 1.08171e-12 4.38262e-12 0 0 1.59143e-26
3530 118 0.0015 0.66335 -1.87327 0 -5.00808e-12 -3.80391e-12 0 1.57149e-20 2.70144e-26
10301 344 0.0015 -0.490541 -1.87033 0 -1.22271e-12 1.61528e-12 0 1.68424e-20 1.66208e-27
10300 344 0.0015 -0.487717 -1.87124 0 3.8012e-12 -2.194e-12 0 1.68424e-20 8.50764e-27
6084 203 0.0015 -0.429191 -1.8708 0 4.32856e-12 -2.77938e-12 0 0 1.2012e-26
6083 203 0.0015 -0.427374 -1.87166 0 -5.8623e-12 3.64244e-12 0 0 1.46955e-26
6035 202 0.0015 -0.332631 -1.87017 0 -2.29188e-13 3.93643e-13 0 2.74394e-21 3.78507e-28
7999 267 0.0015 -0.23674 -1.87052 0 3.12121e-13 4.8542e-13 0 0 7.47935e-28
7998 267 0.0015 -0.234415 -1.8714 0 2.42427e-13 -3.55058e-13 0 0 1.34178e-27
1481 50 0.0015 0.579128 -1.8714 0 3.58586e-13 -6.01597e-13 0 1.36296e-20 1.65953e-28
3529 118 0.0015 0.665887 -1.87136 0 3.96803e-12 4.15234e-12 0 1.57149e-20 2.64569e-26
2650 89 0.0015 -0.6044 -1.86922 0 -2.85052e-12 1.81779e-12 0 1.06521e-20 1.06326e-26
10303 344 0.0015 -0.49619 -1.86852 0 4.39028e-12 8.34352e-13 0 0 7.17626e-27
10302 344 0.0015 -0.493366 -1.86943 0 -1.47068e-12 -1.34112e-12 0 1.68424e-20 1.34885e-27
6087 203 0.0015 -0.434641 -1.86821 0 -2.85849e-12 -1.88907e-13 0 2.48474e-20 2.45541e-27
6085 203 0.0015 -0.431008 -1.86994 0 -2.56506e-12 -2.54587e-12 0 0 4.36713e-28
6086 203 0.0015 -0.432824 -1.86908 0 4.31664e-12 2.60707e-12 0 2.48474e-20 2.64219e-27
8001 267 0.0015 -0.241392 -1.86876 0 6.48883e-13 1.38643e-12 0 0 1.54036e-27
8000 267 0.0015 -0.239066 -1.86964 0 8.70708e-13 -2.41686e-12 0 0 9.98424e-28
8012 268 0.0015 -0.171924 -1.86923 0 2.03123e-13 5.47359e-13 0 0 2.17494e-27
10332 345 0.0015 -0.0679644 -1.86909 0 -1.69436e-13 -2.41438e-12 0 0 8.20258e-27
1957 66 0.0015 0.0127576 -1.86871 0 3.65566e-13 -4.28553e-12 0 0 1.35715e-26
10269 343 0.0015 0.423451 -1.86924 0 -6.28322e-13 -9.27949e-13 0 1.24237e-20 8.00377e-28
1482 50 0.0015 0.581354 -1.86848 0 -1.34773e-12 -8.61397e-13 0 6.81478e-21 1.95144e-27
3528 118 0.0015 0.668424 -1.86944 0 2.13258e-12 -7.24777e-14 0 1.57149e-20 3.08084e-27
2651 89 0.0015 -0.608121 -1.86636 0 -5.67672e-13 6.57834e-13 0 1.59781e-20 3.04504e-27
10305 344 0.0015 -0.501838 -1.8667 0 3.63214e-12 7.37901e-13 0 0 1.19135e-26
10304 344 0.0015 -0.499014 -1.86761 0 -6.67658e-12 2.63942e-13 0 0 1.75638e-26
6089 203 0.0015 -0.438274 -1.86649 0 -3.0677e-12 -4.88445e-12 0 0 4.73591e-28
6088 203 0.0015 -0.436457 -1.86735 0 2.54347e-12 2.21219e-12 0 2.48474e-20 5.62822e-28
8004 267 0.0015 -0.248369 -1.86612 0 -5.56504e-13 2.91525e-12 0 0 1.32054e-27
8003 267 0.0015 -0.246044 -1.867 0 9.03465e-13 -4.61591e-12 0 0 2.14449e-27
8002 267 0.0015 -0.243718 -1.86788 0 -1.53409e-12 2.21863e-12 0 0 1.70158e-27
8046 269 0.0015 0.152008 -1.86695 0 1.94036e-13 -1.68695e-12 0 3.6872e-21 5.07333e-27
6004 201 0.0015 0.499982 -1.86721 0 1.70467e-12 4.51259e-12 0 0 3.16784e-26
3527 118 0.0015 0.670962 -1.86752 0 -2.35304e-12 1.22257e-13 0 0 3.04838e-27
10307 344 0.0015 -0.507486 -1.86489 0 -1.83484e-12 4.2889e-12 0 0 9.6727e-27
10306 344 0.0015 -0.504662 -1.8658 0 2.77053e-12 -4.2605e-12 0 0 9.80583e-27
6090 203 0.0015 -0.440091 -1.86563 0 9.57947e-13 2.52547e-12 0 0 2.63066e-29
8006 267 0.0015 -0.253021 -1.86436 0 -1.11884e-12 -3.44896e-12 0 0 2.34448e-27
8005 267 0.0015 -0.250695 -1.86524 0 -7.24141e-13 1.49349e-12 0 0 1.35073e-27
10333 345 0.0015 -0.0686412 -1.86599 0 3.97113e-13 9.64825e-13 0 1.57149e-20 1.17888e-26
10203 341 0.0015 0.288506 -1.8653 0 4.47588e-13 -4.18259e-12 0 3.6872e-21 1.95685e-26
4532 152 0.0015 0.364868 -1.86469 0 -9.04199e-13 5.91502e-12 0 1.14541e-20 4.37494e-26
10270 343 0.0015 0.424172 -1.86529 0 9.49737e-13 3.48937e-12 0 1.24237e-20 1.29523e-26
1483 50 0.0015 0.58358 -1.86557 0 2.13849e-12 1.5842e-12 0 0 3.35e-27
3526 118 0.0015 0.673499 -1.86561 0 2.41513e-12 5.36623e-14 0 0 3.57999e-27
2652 89 0.0015 -0.611842 -1.86351 0 2.13915e-12 -1.52739e-12 0 1.06521e-20 4.5243e-27
10310 344 0.0015 -0.515959 -1.86217 0 -5.86601e-12 1.89373e-12 0 3.36849e-20 1.56601e-26
10309 344 0.0015 -0.513134 -1.86307 0 4.97019e-12 -1.30429e-12 0 3.36849e-20 1.13969e-26
10308 344 0.0015 -0.51031 -1.86398 0 -2.74253e-12 -8.96653e-13 0 1.68424e-20 3.35474e-27
6036 202 0.0015 -0.337434 -1.86244 0 -4.23212e-13 6.11707e-13 0 2.74394e-21 1.71038e-27
8008 267 0.0015 -0.257673 -1.8626 0 -2.59584e-12 -3.72656e-12 0 0 4.39624e-28
8007 267 0.0015 -0.255347 -1.86348 0 3.16521e-12 3.65881e-12 0 0 1.15822e-27
10334 345 0.0015 -0.0693181 -1.86288 0 -1.68824e-12 6.86661e-12 0 3.14298e-20 2.56023e-26
1958 66 0.0015 0.0122775 -1.86393 0 -4.15837e-13 4.32542e-12 0 0 1.39117e-26
1484 50 0.0015 0.585807 -1.86266 0 -9.29151e-13 6.58122e-13 0 0 2.73055e-27
3525 118 0.0015 0.676036 -1.86369 0 -2.41513e-12 -5.36623e-14 0 0 3.57999e-27
2653 89 0.0015 -0.615563 -1.86065 0 -5.68814e-13 8.85334e-14 0 5.32605e-21 2.54318e-27
10312 344 0.0015 -0.521607 -1.86035 0 -2.88139e-12 1.77683e-12 0 0 4.51037e-27
10311 344 0.0015 -0.518783 -1.86126 0 4.15861e-12 -1.68122e-12 0 1.68424e-20 9.25698e-27
8010 267 0.0015 -0.262324 -1.86085 0 -3.15754e-12 3.53589e-13 0 0 6.54581e-27
8009 267 0.0015 -0.259998 -1.86172 0 4.4844e-12 1.29877e-12 0 0 6.84359e-27
8047 269 0.0015 0.151313 -1.86021 0 -3.10291e-13 2.81943e-12 0 3.6872e-21 7.75665e-27
10271 343 0.0015 0.424893 -1.86133 0 -1.04012e-12 -4.94765e-12 0 1.24237e-20 1.59649e-26
3524 118 0.0015 0.678573 -1.86178 0 2.35304e-12 -1.22257e-13 0 0 3.04838e-27
10314 344 0.0015 -0.527255 -1.85854 0 -6.40447e-12 3.71302e-12 0 0 2.19574e-26
10313 344 0.0015 -0.524431 -1.85944 0 4.33845e-12 -2.70041e-12 0 0 1.08061e-26
10335 345 0.0015 -0.0699949 -1.85978 0 1.16996e-12 -6.93243e-12 0 3.14298e-20 2.54319e-26
1959 66 0.0015 0.0117974 -1.85915 0 4.88039e-13 -4.99264e-12 0 5.20104e-21 1.71454e-26
4771 160 0.0015 0.0785585 -1.85825 0 -9.00377e-15 2.82548e-13 0 0 2.04245e-28
10204 341 0.0015 0.287705 -1.85857 0 3.45322e-14 -2.92001e-14 0 3.6872e-21 5.77526e-27
6005 201 0.0015 0.502997 -1.85945 0 -3.96938e-13 -1.05237e-12 0 0 4.70445e-27
1485 50 0.0015 0.588033 -1.85975 0 6.72432e-13 -1.5828e-12 0 0 1.40079e-27
3523 118 0.0015 0.681111 -1.85986 0 -2.13258e-12 7.24777e-14 0 1.57149e-20 3.08084e-27
2654 89 0.0015 -0.619284 -1.8578 0 -1.73959e-12 1.78232e-12 0 0 4.69052e-27
10316 344 0.0015 -0.532903 -1.85672 0 2.23393e-12 6.46451e-13 0 0 1.1645e-26
10315 344 0.0015 -0.530079 -1.85763 0 4.85741e-12 -3.26394e-12 0 0 1.5807e-26
8013 268 0.0015 -0.167482 -1.85688 0 -4.76241e-13 -1.31114e-12 0 0 3.5715e-27
10336 345 0.0015 -0.0706718 -1.85667 0 5.88699e-14 2.62177e-12 0 1.57149e-20 3.99382e-27
4533 152 0.0015 0.36352 -1.85607 0 9.00787e-13 -5.97497e-12 0 1.71811e-20 4.45305e-26
10272 343 0.0015 0.425614 -1.85738 0 5.61623e-13 2.88408e-12 0 0 4.89829e-27
1486 50 0.0015 0.59026 -1.85684 0 -6.72432e-13 1.5828e-12 0 0 1.40079e-27
3522 118 0.0015 0.683648 -1.85795 0 -3.96803e-12 -4.15234e-12 0 1.57149e-20 2.64569e-26
3521 118 0.0015 0.686185 -1.85603 0 5.00808e-12 3.80391e-12 0 1.57149e-20 2.70144e-26
2655 89 0.0015 -0.623004 -1.85494 0 2.64542e-12 -2.40741e-12 0 0 8.27663e-27
10318 344 0.0015 -0.538552 -1.85491 0 2.3832e-12 9.75409e-13 0 0 7.04451e-27
10317 344 0.0015 -0.535727 -1.85581 0 -6.28918e-12 8.39774e-13 0 0 1.62336e-26
6037 202 0.0015 -0.342237 -1.85471 0 7.65782e-13 -1.19374e-12 0 2.74394e-21 2.60376e-27
1960 66 0.0015 0.0113172 -1.85437 0 -1.41905e-13 1.7581e-12 0 5.20104e-21 6.30812e-27
3520 118 0.0015 0.688722 -1.85412 0 1.30449e-13 1.56534e-12 0 0 3.66816e-27
2656 89 0.0015 -0.626725 -1.85209 0 -2.19496e-12 1.66982e-12 0 0 5.4203e-27
10320 344 0.0015 -0.5442 -1.85309 0 -1.82339e-12 1.26111e-12 0 0 3.70941e-27
10319 344 0.0015 -0.541376 -1.854 0 2.29198e-12 -2.52372e-12 0 0 4.28031e-27
10337 345 0.0015 -0.0713486 -1.85356 0 -1.47617e-12 4.25478e-12 0 0 2.18221e-26
8048 269 0.0015 0.150617 -1.85348 0 1.55561e-13 -1.19225e-12 0 3.6872e-21 2.68953e-27
10273 343 0.0015 0.426335 -1.85342 0 -6.91504e-14 -8.79469e-13 0 0 2.02283e-27
1487 50 0.0015 0.592486 -1.85392 0 9.29151e-13 -6.58122e-13 0 0 2.73055e-27
3519 118 0.0015 0.69126 -1.8522 0 1.91464e-12 -4.40805e-13 0 1.57149e-20 1.17204e-26
10338 345 0.0015 -0.0720254 -1.85046 0 2.15384e-12 -8.49199e-12 0 0 3.44258e-26
10205 341 0.0015 0.286904 -1.85184 0 -2.80311e-13 2.11834e-12 0 3.6872e-21 4.42692e-27
6006 201 0.0015 0.506013 -1.85168 0 -1.1404e-13 -3.13671e-13 0 0 1.82312e-28
1488 50 0.0015 0.594712 -1.85101 0 -2.13849e-12 -1.5842e-12 0 0 3.35e-27
3518 118 0.0015 0.693797 -1.85028 0 -4.54696e-12 -2.70681e-12 0 1.57149e-20 1.26553e-26
2657 89 0.0015 -0.630446 -1.84923 0 1.9606e-12 -1.07167e-12 0 5.32605e-21 3.23212e-27
1961 66 0.0015 0.0108371 -1.84959 0 -2.00091e-13 1.61292e-12 0 5.20104e-21 2.26494e-27
4772 160 0.0015 0.0782973 -1.84905 0 1.57176e-15 1.87153e-14 0 2.71488e-21 4.36351e-28
10274 343 0.0015 0.427056 -1.84946 0 -9.30257e-13 -4.03511e-12 0 0 1.57333e-26
1489 50 0.0015 0.596939 -1.8481 0 1.34773e-12 8.61397e-13 0 6.81478e-21 1.95144e-27
3517 118 0.0015 0.696334 -1.84837 0 -6.89292e-14 8.1897e-13 0 1.57149e-20 6.54079e-27
2658 89 0.0015 -0.634167 -1.84638 0 -5.75763e-13 -1.73433e-13 0 5.32605e-21 3.09725e-27
6038 202 0.0015 -0.34704 -1.84697 0 -2.86709e-13 4.80463e-13 0 0 9.11971e-28
10339 345 0.0015 -0.0727023 -1.84735 0 -6.09677e-13 1.96298e-12 0 0 1.55396e-26
8049 269 0.0015 0.149922 -1.84674 0 1.44456e-13 -1.91749e-12 0 0 7.00002e-27
6541 219 0.0015 0.213251 -1.84656 0 1.65818e-13 -2.17036e-12 0 0 9.35581e-27
4534 152 0.0015 0.362172 -1.84745 0 -4.30422e-13 2.76815e-12 0 1.14541e-20 1.86586e-26
3516 118 0.0015 0.698871 -1.84645 0 2.79048e-12 7.63722e-13 0 0 3.40373e-27
8014 268 0.0015 -0.163039 -1.84452 0 3.61941e-13 9.99086e-13 0 1.90242e-21 2.14798e-27
10340 345 0.0015 -0.0733791 -1.84424 0 -7.62809e-13 4.74887e-12 0 0 1.09096e-26
1962 66 0.0015 0.010357 -1.84481 0 3.28728e-13 -3.17193e-12 0 0 7.10561e-27
10206 341 0.0015 0.286103 -1.84511 0 1.58161e-13 -1.05429e-12 0 7.37441e-21 1.52601e-27
10275 343 0.0015 0.427777 -1.84551 0 1.85718e-12 9.08444e-12 0 0 4.98238e-26
1490 50 0.0015 0.599165 -1.84519 0 -3.58586e-13 6.01597e-13 0 1.36296e-20 1.65953e-28
3515 118 0.0015 0.701409 -1.84454 0 -4.00698e-12 -2.32334e-12 0 1.57149e-20 1.23392e-26
2659 89 0.0015 -0.637888 -1.84352 0 -1.52067e-12 1.69988e-12 0 1.06521e-20 3.39856e-27
6007 201 0.0015 0.509028 -1.84391 0 -2.88712e-14 -2.35546e-14 0 0 2.76736e-29
1491 50 0.0015 0.601391 -1.84228 0 -9.04038e-13 -2.5514e-12 0 1.36296e-20 5.04178e-27
3514 118 0.0015 0.703946 -1.84262 0 4.53403e-12 2.98533e-12 0 1.57149e-20 1.43718e-26
2660 89 0.0015 -0.641609 -1.84066 0 -1.74894e-13 -1.19383e-13 0 5.32605e-21 4.92105e-27
10341 345 0.0015 -0.074056 -1.84114 0 6.40013e-13 -4.29909e-12 0 0 9.65386e-27
1963 66 0.0015 0.00987681 -1.84004 0 -9.63995e-14 1.26675e-12 0 0 5.6335e-27
10276 343 0.0015 0.428498 -1.84155 0 -1.85718e-12 -9.08444e-12 0 0 4.98238e-26
3513 118 0.0015 0.706483 -1.84071 0 -6.38427e-13 5.26582e-13 0 1.57149e-20 5.22903e-27
6039 202 0.0015 -0.351842 -1.83924 0 4.68618e-13 -7.58526e-13 0 0 2.19774e-27
10342 345 0.0015 -0.0747328 -1.83803 0 4.74765e-13 -1.8521e-12 0 0 1.05514e-26
4773 160 0.0015 0.0780361 -1.83985 0 -2.27776e-15 4.44147e-16 0 2.71488e-21 4.64997e-28
8050 269 0.0015 0.149226 -1.84 0 -5.04869e-13 5.42017e-12 0 0 3.02472e-26
6542 219 0.0015 0.21269 -1.83947 0 -1.90349e-13 2.63944e-12 0 0 9.79119e-27
10207 341 0.0015 0.285302 -1.83839 0 -1.1834e-13 7.12083e-13 0 3.6872e-21 6.06377e-28
4535 152 0.0015 0.360823 -1.83883 0 -9.61597e-14 8.53191e-13 0 5.72705e-21 1.89737e-27
1492 50 0.0015 0.603618 -1.83936 0 1.19088e-12 2.73437e-12 0 1.36296e-20 5.39575e-27
3512 118 0.0015 0.70902 -1.83879 0 -3.09779e-12 -3.49625e-12 0 0 1.0045e-26
2661 89 0.0015 -0.64533 -1.83781 0 1.01815e-12 -7.43072e-13 0 5.32605e-21 2.60687e-27
10277 343 0.0015 0.429219 -1.8376 0 9.30257e-13 4.03511e-12 0 0 1.57333e-26
6008 201 0.0015 0.512043 -1.83614 0 -2.48094e-13 -8.37832e-13 0 0 2.16449e-27
1493 50 0.0015 0.605844 -1.83645 0 1.02371e-12 4.75781e-13 0 6.81478e-21 3.45896e-27
3511 118 0.0015 0.711558 -1.83688 0 2.14484e-12 2.06681e-12 0 0 7.7222e-27
2662 89 0.0015 -0.649051 -1.83495 0 9.83139e-13 -6.03345e-13 0 0 1.33211e-27
10343 345 0.0015 -0.0754097 -1.83493 0 2.87593e-13 -4.52008e-13 0 0 2.12136e-26
1964 66 0.0015 0.00939668 -1.83526 0 -7.25256e-14 1.72082e-13 0 5.20104e-21 9.27162e-28
2663 89 0.0015 -0.652772 -1.8321 0 -2.67579e-12 1.76336e-12 0 0 7.58581e-27
10171 340 0.0015 -0.234195 -1.83312 0 1.11326e-12 -1.58359e-12 0 6.39056e-21 8.13722e-27
8015 268 0.0015 -0.158597 -1.83216 0 -4.66891e-13 -1.28469e-12 0 3.80484e-21 3.90971e-27
8051 269 0.0015 0.14853 -1.83326 0 4.77825e-13 -4.94373e-12 0 0 2.72146e-26
6543 219 0.0015 0.212128 -1.83239 0 -1.37826e-13 1.57939e-12 0 0 8.77359e-27
10278 343 0.0015 0.429939 -1.83364 0 6.91504e-14 8.79469e-13 0 0 2.02283e-27
1494 50 0.0015 0.60807 -1.83354 0 -2.19114e-12 -1.84055e-12 0 6.81478e-21 4.16336e-27
6040 202 0.0015 -0.356645 -1.83151 0 -1.53862e-12 2.41561e-12 0 0 1.16369e-26
10344 345 0.0015 -0.0760865 -1.83182 0 -2.19358e-12 8.90492e-12 0 0 3.84666e-26
1965 66 0.0015 0.00891654 -1.83048 0 -4.423e-13 4.79303e-12 0 5.20104e-21 2.52206e-26
4774 160 0.0015 0.0777749 -1.83066 0 2.23093e-14 -6.76491e-13 0 2.71488e-21 5.92297e-28
10208 341 0.0015 0.284501 -1.83166 0 -1.02779e-13 1.04232e-12 0 3.6872e-21 5.26501e-27
4536 152 0.0015 0.359475 -1.83021 0 -1.70287e-14 -1.33808e-13 0 0 3.27655e-27
1495 50 0.0015 0.610297 -1.83063 0 1.45109e-12 6.47391e-13 0 0 1.30408e-27
2664 89 0.0015 -0.656493 -1.82924 0 4.86472e-12 -3.64879e-12 0 0 2.59441e-26
10345 345 0.0015 -0.0767633 -1.82871 0 1.4847e-12 -5.831e-12 0 1.57149e-20 2.65954e-26
10279 343 0.0015 0.43066 -1.82968 0 -5.61623e-13 -2.88408e-12 0 0 4.89829e-27
6009 201 0.0015 0.515058 -1.82837 0 3.03794e-13 1.15545e-12 0 0 2.26159e-27
2665 89 0.0015 -0.660213 -1.82639 0 -5.12833e-12 4.12901e-12 0 0 2.91409e-26
10172 340 0.0015 -0.238704 -1.82673 0 -1.51467e-12 2.19394e-12 0 6.39056e-21 9.29485e-27
8052 269 0.0015 0.147835 -1.82652 0 -2.68507e-13 2.76211e-12 0 0 7.26189e-27
1496 50 0.0015 0.612523 -1.82772 0 -7.56612e-13 1.26765e-13 0 0 9.82527e-29
10346 345 0.0015 -0.0774402 -1.82561 0 -1.48253e-12 5.47801e-12 0 3.14298e-20 2.33704e-26
1966 66 0.0015 0.0084364 -1.8257 0 6.30838e-13 -6.24834e-12 0 5.20104e-21 3.00225e-26
6544 219 0.0015 0.211567 -1.8253 0 2.62054e-13 -3.53748e-12 0 0 1.27353e-26
10209 341 0.0015 0.2837 -1.82493 0 2.8144e-13 -2.25756e-12 0 3.6872e-21 5.62072e-27
10280 343 0.0015 0.431381 -1.82573 0 1.04012e-12 4.94765e-12 0 1.24237e-20 1.59649e-26
1497 50 0.0015 0.614749 -1.8248 0 -9.41732e-13 -1.998e-12 0 6.81478e-21 4.98456e-27
2666 89 0.0015 -0.663934 -1.82353 0 2.73037e-12 -2.31559e-12 0 0 1.0484e-26
6041 202 0.0015 -0.361448 -1.82377 0 8.43997e-13 -1.25923e-12 0 0 9.8838e-27
10347 345 0.0015 -0.078117 -1.8225 0 2.74892e-12 -1.12006e-11 0 3.14298e-20 5.9437e-26
2667 89 0.0015 -0.667655 -1.82068 0 5.54584e-14 -1.05571e-14 0 0 2.12953e-27
10173 340 0.0015 -0.243212 -1.82034 0 -3.49699e-13 3.79918e-13 0 6.39056e-21 4.50837e-27
1967 66 0.0015 0.00795626 -1.82092 0 -8.85377e-14 6.95961e-13 0 5.20104e-21 7.24144e-27
4775 160 0.0015 0.0775136 -1.82146 0 1.52806e-14 -6.05062e-13 0 0 2.81528e-27
4537 152 0.0015 0.358127 -1.82159 0 2.76712e-14 -1.32981e-13 0 0 2.31009e-27
10281 343 0.0015 0.432102 -1.82177 0 -9.49737e-13 -3.48937e-12 0 1.24237e-20 1.29523e-26
6010 201 0.0015 0.518074 -1.8206 0 6.01729e-13 1.18913e-12 0 0 5.68309e-27
1498 50 0.0015 0.616976 -1.82189 0 4.52315e-13 1.50482e-12 0 1.36296e-20 5.54194e-27
8016 268 0.0015 -0.154154 -1.81981 0 5.95473e-13 1.64734e-12 0 3.80484e-21 5.63143e-27
10348 345 0.0015 -0.0787939 -1.81939 0 -1.81201e-12 8.11465e-12 0 1.57149e-20 3.95244e-26
8053 269 0.0015 0.147139 -1.81978 0 1.73157e-13 -1.8551e-12 0 0 3.84321e-27
6545 219 0.0015 0.211005 -1.81821 0 -1.01078e-13 1.68266e-12 0 0 4.47073e-27
10210 341 0.0015 0.282899 -1.8182 0 -6.18165e-14 4.26478e-14 0 3.6872e-21 1.67206e-27
1499 50 0.0015 0.619202 -1.81898 0 4.87471e-12 5.25752e-12 0 1.36296e-20 4.22098e-26
2668 89 0.0015 -0.671376 -1.81782 0 -1.65988e-12 1.45996e-12 0 0 3.24787e-27
6042 202 0.0015 -0.366251 -1.81604 0 1.44798e-12 -2.42344e-12 0 0 1.50702e-26
10349 345 0.0015 -0.0794707 -1.81629 0 -1.64283e-13 1.1858e-14 0 0 6.53255e-27
1968 66 0.0015 0.00747613 -1.81614 0 -9.42554e-14 8.03689e-13 0 5.20104e-21 2.38466e-27
10282 343 0.0015 0.432823 -1.81781 0 6.28322e-13 9.27949e-13 0 1.24237e-20 8.00377e-28
1500 50 0.0015 0.621428 -1.81607 0 -4.12335e-12 -4.89826e-12 0 6.81478e-21 4.16496e-26
2669 89 0.0015 -0.675097 -1.81497 0 1.89515e-12 -1.61896e-12 0 0 4.03858e-27
5941 199 0.0015 0.740778 -1.81551 0 -5.35249e-14 -2.36054e-13 0 2.60052e-21 1.56279e-28
2670 89 0.0015 -0.678818 -1.81211 0 -9.44593e-13 7.60468e-13 0 0 1.91485e-27
10174 340 0.0015 -0.24772 -1.81396 0 1.94496e-12 -2.64481e-12 0 0 1.23898e-26
10350 345 0.0015 -0.0801475 -1.81318 0 4.94103e-13 -1.88434e-12 0 0 3.3453e-27
4776 160 0.0015 0.0772524 -1.81226 0 -7.14739e-14 2.43573e-12 0 0 7.87813e-27
8054 269 0.0015 0.146443 -1.81304 0 7.20288e-14 -5.32832e-13 0 3.6872e-21 2.73294e-27
4538 152 0.0015 0.356779 -1.81297 0 3.53425e-13 -2.06794e-12 0 0 6.22602e-27
10283 343 0.0015 0.433544 -1.81386 0 -1.08171e-12 -4.38262e-12 0 0 1.59143e-26
6011 201 0.0015 0.521089 -1.81283 0 -1.158e-12 -2.82276e-12 0 0 1.07731e-26
1969 66 0.0015 0.00699599 -1.81136 0 -1.27985e-13 1.62327e-12 0 5.20104e-21 2.1215e-27
6546 219 0.0015 0.210443 -1.81113 0 -1.76215e-13 2.11886e-12 0 0 1.06959e-26
10211 341 0.0015 0.282098 -1.81148 0 1.20196e-13 -3.41927e-13 0 3.6872e-21 2.63678e-27
6043 202 0.0015 -0.371054 -1.8083 0 -2.11147e-12 3.44856e-12 0 0 2.14169e-26
10284 343 0.0015 0.434265 -1.8099 0 3.73149e-13 2.65141e-12 0 0 1.62969e-26
10175 340 0.0015 -0.252228 -1.80757 0 -2.11461e-12 2.99293e-12 0 0 1.47692e-26
8017 268 0.0015 -0.149712 -1.80745 0 -1.85362e-13 -5.21782e-13 0 1.90242e-21 2.60003e-27
1970 66 0.0015 0.00651585 -1.80658 0 2.49247e-13 -2.57649e-12 0 5.20104e-21 4.50558e-27
8055 269 0.0015 0.145748 -1.8063 0 -2.15524e-13 2.01058e-12 0 7.37441e-21 3.8639e-27
5942 199 0.0015 0.743061 -1.80618 0 3.77048e-14 2.16829e-13 0 1.04021e-20 1.57621e-28
6547 219 0.0015 0.209882 -1.80404 0 3.02796e-13 -4.12126e-12 0 0 1.71128e-26