ITEM: TIMESTEP
34400
ITEM: NUMBER OF ATOMS
10500
ITEM: BOX BOUNDS pp pp pp
-1.0249999999999999e+00 1.0249999999999999e+00
-2.0000000000000000e+00 2.0000000000000000e+00
-5.0000000000000003e-02 5.0000000000000003e-02
ITEM: ATOMS id type radius x y z fx fy fz c_bendingE c_stretchingE
10321 345 0.0015 -0.0605191 -1.90326 0 2.40394e-13 -8.86261e-13 0 1.57149e-20 7.42767e-28
6031 202 0.0015 -0.31342 -1.90111 0 1.91952e-14 -5.12679e-14 0 0 7.28641e-30
10322 345 0.0015 -0.061196 -1.90016 0 -3.91756e-13 9.09419e-13 0 1.57149e-20 7.45427e-28
8041 269 0.0015 0.155487 -1.90065 0 -1.60713e-13 1.53667e-12 0 3.6872e-21 4.49242e-27
10261 343 0.0015 0.417684 -1.90089 0 3.32136e-14 6.15492e-13 0 0 4.17669e-28
1471 50 0.0015 0.556864 -1.90052 0 -4.95876e-13 -1.1883e-12 0 6.81478e-21 1.57873e-27
10323 345 0.0015 -0.0618728 -1.89705 0 -4.36952e-13 3.49877e-12 0 1.57149e-20 1.12351e-26
1951 66 0.0015 0.0156385 -1.89738 0 -3.44442e-13 3.21412e-12 0 0 1.394e-26
10262 343 0.0015 0.418405 -1.89694 0 -3.27985e-13 -2.65946e-12 0 0 5.17496e-27
1472 50 0.0015 0.559091 -1.8976 0 2.47793e-12 4.89323e-12 0 6.81478e-21 1.90905e-26
2641 89 0.0015 -0.570912 -1.89491 0 8.59503e-14 -3.72762e-14 0 0 1.07592e-29
1473 50 0.0015 0.561317 -1.89469 0 -1.68837e-12 -3.94167e-12 0 1.36296e-20 1.75119e-26
2642 89 0.0015 -0.574633 -1.89206 0 -2.49976e-13 6.82034e-14 0 0 3.96688e-29
6032 202 0.0015 -0.318223 -1.89337 0 -3.58318e-13 6.43726e-13 0 0 1.18423e-27
10324 345 0.0015 -0.0625496 -1.89394 0 4.88513e-13 -3.80653e-12 0 0 1.12907e-26
1952 66 0.0015 0.0151583 -1.8926 0 5.34365e-13 -4.72008e-12 0 0 1.70119e-26
8042 269 0.0015 0.154791 -1.89391 0 7.13831e-13 -6.73663e-12 0 7.37441e-21 5.59529e-26
10263 343 0.0015 0.419126 -1.89298 0 8.96249e-13 5.18141e-12 0 0 1.61561e-26
3540 118 0.0015 0.637977 -1.89243 0 3.71902e-13 5.91783e-13 0 1.57149e-20 3.77017e-28
6061 203 0.0015 -0.387409 -1.89062 0 2.38349e-12 -2.00713e-12 0 2.48474e-20 5.07277e-27
10325 345 0.0015 -0.0632265 -1.89084 0 8.39889e-13 -2.03253e-12 0 0 5.23673e-27
10231 342 0.0015 0.215 -1.89 0 -7.30646e-13 0 0 0 1.02269e-28
10232 342 0.0015 0.21569 -1.89 0 3.22367e-12 0 0 0 1.29292e-27
10233 342 0.0015 0.216379 -1.89 0 -4.78095e-12 0 0 0 2.19364e-27
10234 342 0.0015 0.217069 -1.89 0 3.91165e-12 0 0 0 1.50807e-27
10235 342 0.0015 0.217759 -1.89 0 -3.22412e-12 0 0 0 9.95462e-28
10236 342 0.0015 0.218448 -1.89 0 4.41919e-12 0 0 0 2.01277e-27
10237 342 0.0015 0.219138 -1.89 0 -6.62823e-12 0 0 0 4.30242e-27
10238 342 0.0015 0.219828 -1.89 0 6.62867e-12 0 0 0 4.30242e-27
10239 342 0.0015 0.220517 -1.89 0 -3.51344e-12 0 0 0 1.61476e-27
10240 342 0.0015 0.221207 -1.89 0 1.77505e-12 0 0 0 3.15996e-28
10241 342 0.0015 0.221897 -1.89 0 -3.47833e-12 0 0 0 1.32414e-27
10242 342 0.0015 0.222586 -1.89 0 5.46982e-12 0 0 0 2.90907e-27
10243 342 0.0015 0.223276 -1.89 0 -4.81718e-12 0 0 0 2.39178e-27
10244 342 0.0015 0.223966 -1.89 0 3.04257e-12 0 0 0 9.05853e-28
10245 342 0.0015 0.224655 -1.89 0 -3.00635e-12 0 0 0 8.8189e-28
10246 342 0.0015 0.225345 -1.89 0 3.00635e-12 0 0 0 8.8189e-28
10247 342 0.0015 0.226034 -1.89 0 -3.04257e-12 0 0 0 9.05853e-28
10248 342 0.0015 0.226724 -1.89 0 4.81718e-12 0 0 0 2.39178e-27
10249 342 0.0015 0.227414 -1.89 0 -5.46982e-12 0 0 0 2.90907e-27
10250 342 0.0015 0.228103 -1.89 0 3.47833e-12 0 0 0 1.32414e-27
10251 342 0.0015 0.228793 -1.89 0 -1.77505e-12 0 0 0 3.15996e-28
10252 342 0.0015 0.229483 -1.89 0 3.51344e-12 0 0 0 1.61476e-27
10253 342 0.0015 0.230172 -1.89 0 -6.62867e-12 0 0 0 4.30242e-27
10254 342 0.0015 0.230862 -1.89 0 6.62823e-12 0 0 0 4.30242e-27
10255 342 0.0015 0.231552 -1.89 0 -4.41919e-12 0 0 0 2.01277e-27
10256 342 0.0015 0.232241 -1.89 0 3.22412e-12 0 0 0 9.95462e-28
10257 342 0.0015 0.232931 -1.89 0 -3.91165e-12 0 0 0 1.50807e-27
10258 342 0.0015 0.233621 -1.89 0 4.78095e-12 0 0 0 2.19364e-27
10259 342 0.0015 0.23431 -1.89 0 -3.22367e-12 0 0 0 1.29292e-27
10260 342 0.0015 0.235 -1.89 0 7.30646e-13 0 0 0 1.02269e-28
6001 201 0.0015 0.490936 -1.89052 0 3.08058e-13 7.8381e-13 0 0 1.6417e-27
1474 50 0.0015 0.563543 -1.89178 0 -2.48216e-12 -2.49384e-12 0 1.36296e-20 1.2462e-26
3539 118 0.0015 0.640514 -1.89051 0 -2.67203e-12 -2.61265e-12 0 1.57149e-20 8.61011e-27
2643 89 0.0015 -0.578354 -1.8892 0 9.26825e-13 -5.98258e-13 0 5.32605e-21 1.20603e-27
6063 203 0.0015 -0.391043 -1.8889 0 -1.44427e-12 2.92031e-12 0 2.48474e-20 6.39207e-27
6064 203 0.0015 -0.392859 -1.88804 0 2.06437e-12 -5.49614e-12 0 0 6.55664e-27
6062 203 0.0015 -0.389226 -1.88976 0 -3.0569e-12 2.32258e-12 0 2.48474e-20 5.38166e-27
10264 343 0.0015 0.419847 -1.88903 0 -1.49922e-12 -7.69447e-12 0 1.24237e-20 3.54912e-26
1475 50 0.0015 0.56577 -1.88887 0 3.33413e-12 4.02929e-12 0 1.36296e-20 1.55007e-26
3538 118 0.0015 0.643052 -1.8886 0 4.16395e-12 3.07941e-12 0 1.57149e-20 1.2222e-26
2644 89 0.0015 -0.582074 -1.88635 0 -2.01546e-12 1.52371e-12 0 5.32605e-21 4.41308e-27
6066 203 0.0015 -0.396492 -1.88631 0 -8.33295e-12 1.51143e-12 0 0 2.27779e-26
6065 203 0.0015 -0.394676 -1.88717 0 2.78997e-12 2.96459e-12 0 0 3.10507e-27
7981 267 0.0015 -0.194876 -1.88635 0 1.84998e-12 1.68378e-12 0 0 8.89356e-28
10326 345 0.0015 -0.0639033 -1.88773 0 -4.04453e-13 -3.61808e-13 0 0 1.15637e-26
1953 66 0.0015 0.0146782 -1.88782 0 -2.07543e-13 1.58717e-12 0 0 3.08096e-27
8043 269 0.0015 0.154095 -1.88717 0 -8.99978e-13 8.34457e-12 0 7.37441e-21 7.02953e-26
3537 118 0.0015 0.645589 -1.88668 0 -1.60783e-12 -4.60149e-13 0 1.57149e-20 4.27071e-27
6068 203 0.0015 -0.400126 -1.88459 0 -8.14936e-12 6.85843e-12 0 0 4.32879e-26
6067 203 0.0015 -0.398309 -1.88545 0 1.25214e-11 -7.79113e-12 0 0 6.19025e-26
6033 202 0.0015 -0.323025 -1.88564 0 1.63463e-12 -2.74258e-12 0 0 1.71089e-26
7983 267 0.0015 -0.199527 -1.8846 0 3.39232e-13 4.35493e-12 0 0 1.43978e-27
7982 267 0.0015 -0.197202 -1.88548 0 -3.26839e-12 -4.8525e-12 0 0 9.18606e-28
10327 345 0.0015 -0.0645802 -1.88463 0 -1.01659e-12 6.08504e-12 0 0 1.70369e-26
10265 343 0.0015 0.420568 -1.88507 0 2.28597e-12 1.17508e-11 0 1.24237e-20 8.4046e-26
1476 50 0.0015 0.567996 -1.88596 0 -1.63209e-12 -2.04052e-12 0 1.36296e-20 3.83581e-27
3536 118 0.0015 0.648126 -1.88476 0 -2.48083e-12 -2.01846e-12 0 1.57149e-20 6.39595e-27
2645 89 0.0015 -0.585795 -1.88349 0 2.53033e-12 -1.76178e-12 0 5.32605e-21 6.18274e-27
6071 203 0.0015 -0.405575 -1.882 0 9.146e-12 -6.16235e-13 0 0 2.05249e-26
6070 203 0.0015 -0.403759 -1.88287 0 -4.52228e-12 -2.59592e-12 0 0 8.55829e-27
6069 203 0.0015 -0.401942 -1.88373 0 1.49268e-12 1.26207e-12 0 0 1.93365e-27
7985 267 0.0015 -0.204179 -1.88284 0 -1.12598e-12 1.82721e-13 0 0 1.09029e-27
7984 267 0.0015 -0.201853 -1.88372 0 2.45328e-12 -1.08515e-12 0 0 2.48885e-27
1954 66 0.0015 0.0141981 -1.88304 0 -2.58071e-13 2.3933e-12 0 5.20104e-21 8.27869e-27
6002 201 0.0015 0.493952 -1.88275 0 -1.85805e-13 -5.07089e-13 0 0 1.8531e-27
1477 50 0.0015 0.570222 -1.88304 0 -2.46097e-13 3.72855e-13 0 6.81478e-21 1.35163e-27
3535 118 0.0015 0.650663 -1.88285 0 4.42494e-12 2.59069e-12 0 3.14298e-20 1.14636e-26
2646 89 0.0015 -0.589516 -1.88064 0 -3.50762e-12 2.30685e-12 0 0 1.23263e-26
6073 203 0.0015 -0.409209 -1.88028 0 1.24227e-11 -2.28577e-12 0 2.48474e-20 4.16297e-26
6072 203 0.0015 -0.407392 -1.88114 0 -1.15945e-11 1.22503e-12 0 0 3.44979e-26
7988 267 0.0015 -0.211156 -1.8802 0 7.36924e-13 -3.177e-12 0 1.00459e-20 1.3714e-27
7987 267 0.0015 -0.208831 -1.88108 0 -1.24049e-12 2.87233e-12 0 1.00459e-20 1.71e-27
7986 267 0.0015 -0.206505 -1.88196 0 2.05529e-13 -1.50534e-12 0 1.00459e-20 5.18583e-28
8011 268 0.0015 -0.176367 -1.88159 0 -1.31481e-13 -3.63878e-13 0 1.90242e-21 5.45999e-28
10328 345 0.0015 -0.065257 -1.88152 0 8.18901e-13 -3.08028e-12 0 1.57149e-20 1.07254e-26
8044 269 0.0015 0.1534 -1.88043 0 4.44733e-13 -4.05914e-12 0 3.6872e-21 2.04267e-26
10266 343 0.0015 0.421289 -1.88111 0 -1.90069e-12 -9.81728e-12 0 1.24237e-20 6.79339e-26
1478 50 0.0015 0.572449 -1.88013 0 1.467e-12 6.54524e-13 0 6.81478e-21 1.01571e-27
3534 118 0.0015 0.653201 -1.88093 0 -8.48192e-13 -2.86962e-13 0 1.57149e-20 7.6425e-27
10292 344 0.0015 -0.465124 -1.8785 0 -2.98494e-12 1.53692e-12 0 0 1.22323e-26
10291 344 0.0015 -0.4623 -1.87941 0 3.56996e-12 -1.37488e-12 0 0 1.20201e-26
6074 203 0.0015 -0.411025 -1.87942 0 -6.95696e-12 3.20011e-12 0 4.96948e-20 2.12074e-26
6075 203 0.0015 -0.412842 -1.87856 0 2.79523e-12 -2.64002e-12 0 4.96948e-20 3.742e-27
7990 267 0.0015 -0.215808 -1.87844 0 5.34432e-13 -3.05956e-12 0 0 1.38548e-27
7989 267 0.0015 -0.213482 -1.87932 0 -6.86695e-13 3.55067e-12 0 0 1.53184e-27
10329 345 0.0015 -0.0659339 -1.87841 0 -7.21727e-13 4.89849e-13 0 1.57149e-20 8.23305e-28
1955 66 0.0015 0.0137179 -1.87827 0 6.70583e-13 -6.21281e-12 0 1.04021e-20 2.71215e-26
10201 341 0.0015 0.290108 -1.87875 0 -1.53482e-13 1.36561e-12 0 3.6872e-21 3.55367e-27
3533 118 0.0015 0.655738 -1.87902 0 -6.1846e-12 -4.2487e-12 0 1.57149e-20 3.28723e-26
2647 89 0.0015 -0.593237 -1.87778 0 3.01659e-12 -2.05139e-12 0 0 1.05773e-26
10294 344 0.0015 -0.470773 -1.87669 0 6.28155e-12 -2.68145e-12 0 0 1.90707e-26
10293 344 0.0015 -0.467948 -1.87759 0 -3.68269e-12 9.84247e-13 0 0 9.18415e-27
6077 203 0.0015 -0.416475 -1.87683 0 2.23583e-12 1.52621e-12 0 2.48474e-20 5.2145e-28
6076 203 0.0015 -0.414658 -1.87769 0 -2.44968e-12 9.31841e-13 0 4.96948e-20 2.31167e-27
6034 202 0.0015 -0.327828 -1.87791 0 -2.77249e-12 4.59713e-12 0 0 3.65874e-26
7992 267 0.0015 -0.22046 -1.87668 0 -3.0964e-12 2.3548e-12 0 2.00918e-20 4.92224e-27
7991 267 0.0015 -0.218134 -1.87756 0 2.06304e-12 -1.46305e-13 0 1.00459e-20 3.23967e-27
10267 343 0.0015 0.42201 -1.87716 0 2.17642e-13 1.43311e-12 0 0 9.65358e-27
1479 50 0.0015 0.574675 -1.87722 0 -6.74621e-13 3.18897e-13 0 0 7.32794e-28
3532 118 0.0015 0.658275 -1.8771 0 2.07626e-12 1.3813e-12 0 0 4.07587e-26
2648 89 0.0015 -0.596958 -1.87493 0 -7.66118e-13 7.51913e-13 0 5.32605e-21 1.21265e-27
10296 344 0.0015 -0.476421 -1.87487 0 3.15086e-12 -1.32787e-12 0 1.68424e-20 7.3298e-27
10295 344 0.0015 -0.473597 -1.87578 0 -5.87477e-12 2.79417e-12 0 0 1.72549e-26
6080 203 0.0015 -0.421925 -1.87425 0 -6.56718e-12 -4.53847e-12 0 2.48474e-20 4.44853e-27
6079 203 0.0015 -0.420108 -1.87511 0 7.86653e-12 4.20606e-12 0 0 8.46558e-27
6078 203 0.0015 -0.418291 -1.87597 0 -5.8542e-12 -2.88594e-12 0 2.48474e-20 6.66376e-27
7995 267 0.0015 -0.227437 -1.87404 0 7.0114e-13 1.99879e-12 0 0 8.74271e-28
7994 267 0.0015 -0.225111 -1.87492 0 1.36209e-13 -2.4068e-12 0 1.00459e-20 4.82583e-28
7993 267 0.0015 -0.222785 -1.8758 0 1.36019e-12 -3.96975e-13 0 2.00918e-20 1.72148e-27
10330 345 0.0015 -0.0666107 -1.87531 0 1.11135e-12 -1.81754e-12 0 1.57149e-20 1.80107e-27
6003 201 0.0015 0.496967 -1.87498 0 3.24997e-13 1.02381e-12 0 0 4.58294e-27
1480 50 0.0015 0.576901 -1.87431 0 3.57552e-13 -5.75083e-13 0 0 3.49714e-28
3531 118 0.0015 0.660812 -1.87519 0 7.36513e-12 5.67926e-12 0 0 4.09709e-26
2649 89 0.0015 -0.600679 -1.87207 0 7.73027e-13 -1.11364e-12 0 5.32605e-21 1.84288e-27
10299 344 0.0015 -0.484893 -1.87215 0 -3.53221e-12 1.50089e-13 0 3.36849e-20 6.18082e-27
10298 344 0.0015 -0.482069 -1.87306 0 6.79115e-13 1.77369e-12 0 5.05273e-20 8.89342e-28
10297 344 0.0015 -0.479245 -1.87396 0 -9.12559e-14 -1.00917e-12 0 3.36849e-20 5.55471e-28
6082 203 0.0015 -0.425558 -1.87252 0 -9.61802e-12 -7.62054e-12 0 4.96948e-20 8.28069e-27
6081 203 0.0015 -0.423741 -1.87338 0 7.33569e-12 4.87166e-12 0 2.48474e-20 5.79765e-27
7997 267 0.0015 -0.232089 -1.87228 0 4.40417e-13 4.94005e-13 0 0 1.17809e-27
7996 267 0.0015 -0.229763 -1.87316 0 -2.07694e-12 -3.92243e-13 0 0 1.14802e-27
10331 345 0.0015 -0.0672875 -1.8722 0 -3.62588e-13 2.83883e-13 0 1.57149e-20 1.53072e-27
1956 66 0.0015 0.0132378 -1.87349 0 -8.02378e-14 6.63957e-13 0 1.04021e-20 3.15936e-26
8045 269 0.0015 0.152704 -1.87369 0 -3.03211e-13 3.01082e-12 0 0 9.94098e-27
10202 341 0.0015 0.289307 -1.87202 0 2.37463e-13 -2.26861e-12 0 3.6872e-21 5.1004e-27
4531 152 0.0015 0.366216 -1.8733 0 -8.97047e-14 5.20173e-13 0 5.72705e-21 6.74995e-28
10268 343 0.0015 0.422731 -1.8732 0 3.22412e-13 4.3672e-13 0 1.24237e-20 2.27924e-27
3530 118 0.0015 0.66335 -1.87327 0 -5.1294e-12 -4.86616e-12 0 0 3.1901e-26
10301 344 0.0015 -0.490541 -1.87033 0 1.25376e-12 9.72733e-13 0 3.36849e-20 4.41005e-27
10300 344 0.0015 -0.487717 -1.87124 0 3.34717e-12 -1.83912e-12 0 3.36849e-20 6.71676e-27
6084 203 0.0015 -0.429191 -1.8708 0 -1.04781e-11 1.12229e-12 0 7.45423e-20 2.90257e-26
6083 203 0.0015 -0.427374 -1.87166 0 1.30056e-11 6.30591e-12 0 4.96948e-20 2.55978e-26
6035 202 0.0015 -0.332631 -1.87017 0 1.72399e-12 -2.8837e-12 0 2.74394e-21 2.12909e-26
7999 267 0.0015 -0.23674 -1.87052 0 1.91134e-12 -3.01103e-12 0 0 2.97447e-27
7998 267 0.0015 -0.234415 -1.8714 0 3.52715e-14 8.99111e-13 0 0 1.24808e-27
1481 50 0.0015 0.579128 -1.8714 0 -4.18377e-13 7.41926e-13 0 0 4.59605e-28
3529 118 0.0015 0.665887 -1.87136 0 1.02448e-12 2.36252e-12 0 0 2.21767e-27
2650 89 0.0015 -0.6044 -1.86922 0 -1.45963e-12 1.59163e-12 0 5.32605e-21 2.98506e-27
10303 344 0.0015 -0.49619 -1.86852 0 2.38175e-12 -3.60303e-13 0 1.68424e-20 8.02562e-27
10302 344 0.0015 -0.493366 -1.86943 0 -5.16207e-12 5.06211e-13 0 3.36849e-20 1.10221e-26
6087 203 0.0015 -0.434641 -1.86821 0 -4.41834e-12 -1.03308e-12 0 2.48474e-20 3.93091e-27
6085 203 0.0015 -0.431008 -1.86994 0 -9.45305e-13 -6.62851e-12 0 7.45423e-20 1.02675e-26
6086 203 0.0015 -0.432824 -1.86908 0 7.43324e-12 5.74429e-12 0 4.96948e-20 5.12584e-27
8001 267 0.0015 -0.241392 -1.86876 0 -1.31589e-12 7.55205e-13 0 3.01377e-20 7.78269e-28
8000 267 0.0015 -0.239066 -1.86964 0 -6.49703e-13 1.03101e-12 0 1.00459e-20 2.60545e-27
8012 268 0.0015 -0.171924 -1.86923 0 3.35581e-13 9.30348e-13 0 3.80484e-21 1.86834e-27
10332 345 0.0015 -0.0679644 -1.86909 0 -5.22356e-14 -7.42814e-13 0 1.57149e-20 2.33923e-27
1957 66 0.0015 0.0127576 -1.86871 0 -7.60195e-13 7.4639e-12 0 5.20104e-21 3.87129e-26
10269 343 0.0015 0.423451 -1.86924 0 -9.13835e-14 1.14768e-12 0 1.24237e-20 7.64003e-28
1482 50 0.0015 0.581354 -1.86848 0 3.35183e-13 -1.24626e-12 0 6.81478e-21 4.125e-28
3528 118 0.0015 0.668424 -1.86944 0 1.45331e-12 2.04471e-13 0 0 6.20864e-27
2651 89 0.0015 -0.608121 -1.86636 0 2.16454e-12 -1.94595e-12 0 0 6.1593e-27
10305 344 0.0015 -0.501838 -1.8667 0 -8.91046e-12 -4.46693e-14 0 0 2.97541e-26
10304 344 0.0015 -0.499014 -1.86761 0 4.70349e-12 -2.56654e-13 0 0 1.28147e-26
6089 203 0.0015 -0.438274 -1.86649 0 -4.60304e-12 3.6948e-12 0 0 9.4115e-27
6088 203 0.0015 -0.436457 -1.86735 0 2.66137e-12 -2.81615e-12 0 0 4.09946e-27
8004 267 0.0015 -0.248369 -1.86612 0 2.21321e-12 2.5483e-12 0 2.00918e-20 1.5442e-27
8003 267 0.0015 -0.246044 -1.867 0 -3.35458e-12 -2.86337e-12 0 4.01836e-20 1.78355e-27
8002 267 0.0015 -0.243718 -1.86788 0 1.97504e-12 1.38029e-12 0 5.02295e-20 6.38425e-28
8046 269 0.0015 0.152008 -1.86695 0 3.00715e-13 -3.11765e-12 0 0 1.03291e-26
6004 201 0.0015 0.499982 -1.86721 0 -1.47703e-12 -4.12866e-12 0 0 2.5331e-26
3527 118 0.0015 0.670962 -1.86752 0 -4.57481e-12 -4.63843e-12 0 0 1.95331e-26
10307 344 0.0015 -0.507486 -1.86489 0 -1.92213e-12 -5.67557e-13 0 0 3.81267e-27
10306 344 0.0015 -0.504662 -1.8658 0 7.18734e-12 5.07988e-13 0 0 2.09572e-26
6090 203 0.0015 -0.440091 -1.86563 0 2.83688e-12 -1.7126e-12 0 0 6.07173e-27
8006 267 0.0015 -0.253021 -1.86436 0 -2.56892e-12 2.87243e-12 0 0 4.03688e-27
8005 267 0.0015 -0.250695 -1.86524 0 1.08451e-12 -2.7997e-12 0 0 2.07577e-27
10333 345 0.0015 -0.0686412 -1.86599 0 -2.91043e-13 2.94714e-12 0 1.57149e-20 3.82116e-27
10203 341 0.0015 0.288506 -1.8653 0 -2.18926e-13 2.1723e-12 0 3.6872e-21 4.61245e-27
4532 152 0.0015 0.364868 -1.86469 0 4.16346e-14 -1.02181e-13 0 5.72705e-21 1.10326e-27
10270 343 0.0015 0.424172 -1.86529 0 2.01484e-13 -1.61971e-14 0 1.24237e-20 3.33614e-28
1483 50 0.0015 0.58358 -1.86557 0 1.66498e-12 3.90823e-12 0 6.81478e-21 1.5851e-26
3526 118 0.0015 0.673499 -1.86561 0 4.78748e-12 6.88134e-12 0 0 2.80332e-26
2652 89 0.0015 -0.611842 -1.86351 0 -1.5703e-12 1.3134e-12 0 0 5.01191e-27
10310 344 0.0015 -0.515959 -1.86217 0 -5.6928e-12 4.80331e-13 0 0 1.39998e-26
10309 344 0.0015 -0.513134 -1.86307 0 1.6312e-12 7.4697e-13 0 0 3.32387e-27
10308 344 0.0015 -0.51031 -1.86398 0 2.84475e-14 -3.90276e-13 0 0 4.55928e-28
6036 202 0.0015 -0.337434 -1.86244 0 -4.8205e-14 1.35401e-13 0 2.74394e-21 9.64694e-28
8008 267 0.0015 -0.257673 -1.8626 0 -6.44782e-13 -2.16622e-12 0 0 7.93739e-28
8007 267 0.0015 -0.255347 -1.86348 0 2.12309e-12 -1.12269e-12 0 0 2.33386e-27
10334 345 0.0015 -0.0693181 -1.86288 0 1.42889e-12 -6.85139e-12 0 0 2.87557e-26
1958 66 0.0015 0.0122775 -1.86393 0 2.77588e-13 -2.74238e-12 0 1.56031e-20 2.96286e-26
1484 50 0.0015 0.585807 -1.86266 0 -2.82351e-12 -5.51392e-12 0 6.81478e-21 2.05424e-26
3525 118 0.0015 0.676036 -1.86369 0 -4.78748e-12 -6.88134e-12 0 0 2.80332e-26
2653 89 0.0015 -0.615563 -1.86065 0 -1.7897e-12 1.56256e-12 0 0 7.87437e-27
10312 344 0.0015 -0.521607 -1.86035 0 -8.06467e-12 1.8139e-12 0 0 2.91516e-26
10311 344 0.0015 -0.518783 -1.86126 0 6.85773e-12 -1.21934e-12 0 0 1.96901e-26
8010 267 0.0015 -0.262324 -1.86085 0 -7.88143e-15 -1.35911e-12 0 0 1.54804e-28
8009 267 0.0015 -0.259998 -1.86172 0 -1.262e-13 3.36561e-12 0 0 6.36647e-28
8047 269 0.0015 0.151313 -1.86021 0 -9.867e-15 2.45131e-13 0 3.6872e-21 3.12751e-27
10271 343 0.0015 0.424893 -1.86133 0 -2.39881e-14 4.22295e-13 0 0 9.03966e-28
3524 118 0.0015 0.678573 -1.86178 0 4.57481e-12 4.63843e-12 0 0 1.95331e-26
10314 344 0.0015 -0.527255 -1.85854 0 -4.76856e-12 1.78215e-12 0 0 1.39708e-26
10313 344 0.0015 -0.524431 -1.85944 0 8.63317e-12 -2.3579e-12 0 0 3.33586e-26
10335 345 0.0015 -0.0699949 -1.85978 0 -2.0714e-12 8.36208e-12 0 0 3.5298e-26
1959 66 0.0015 0.0117974 -1.85915 0 5.12671e-13 -5.03801e-12 0 3.12062e-20 1.91555e-26
4771 160 0.0015 0.0785585 -1.85825 0 9.0353e-15 -3.26e-13 0 2.71488e-21 2.71837e-28
10204 341 0.0015 0.287705 -1.85857 0 3.23604e-13 -2.9402e-12 0 0 8.38651e-27
6005 201 0.0015 0.502997 -1.85945 0 1.1242e-12 3.15523e-12 0 5.99535e-21 2.12256e-26
1485 50 0.0015 0.588033 -1.85975 0 -1.68099e-12 4.6698e-14 0 0 1.47453e-26
3523 118 0.0015 0.681111 -1.85986 0 -1.45331e-12 -2.04471e-13 0 0 6.20864e-27
2654 89 0.0015 -0.619284 -1.8578 0 2.59845e-12 -2.18835e-12 0 0 9.00791e-27
10316 344 0.0015 -0.532903 -1.85672 0 1.7131e-12 2.08313e-13 0 0 1.13113e-27
10315 344 0.0015 -0.530079 -1.85763 0 3.13189e-13 -1.01604e-12 0 0 1.25877e-27
8013 268 0.0015 -0.167482 -1.85688 0 -2.3071e-13 -6.37768e-13 0 5.70726e-21 1.34347e-27
10336 345 0.0015 -0.0706718 -1.85667 0 -5.88793e-13 3.38571e-12 0 0 4.62349e-26
4533 152 0.0015 0.36352 -1.85607 0 2.84831e-13 -1.99552e-12 0 5.72705e-21 6.5942e-27
10272 343 0.0015 0.425614 -1.85738 0 -8.11836e-13 -4.28873e-12 0 0 1.48636e-26
1486 50 0.0015 0.59026 -1.85684 0 1.68099e-12 -4.6698e-14 0 0 1.47453e-26
3522 118 0.0015 0.683648 -1.85795 0 -1.02448e-12 -2.36252e-12 0 0 2.21767e-27
3521 118 0.0015 0.686185 -1.85603 0 5.1294e-12 4.86616e-12 0 0 3.1901e-26
2655 89 0.0015 -0.623004 -1.85494 0 -2.16248e-12 1.4256e-12 0 0 4.67611e-27
10318 344 0.0015 -0.538552 -1.85491 0 2.54571e-12 -2.03437e-12 0 0 4.74408e-27
10317 344 0.0015 -0.535727 -1.85581 0 -1.59159e-12 1.02109e-12 0 0 1.40789e-27
6037 202 0.0015 -0.342237 -1.85471 0 -4.77097e-14 2.56849e-14 0 2.74394e-21 5.78316e-28
1960 66 0.0015 0.0113172 -1.85437 0 -8.08742e-13 7.99645e-12 0 3.12062e-20 4.40845e-26
3520 118 0.0015 0.688722 -1.85412 0 -7.36513e-12 -5.67926e-12 0 0 4.09709e-26
2656 89 0.0015 -0.626725 -1.85209 0 3.78749e-12 -2.4195e-12 0 0 1.39742e-26
10320 344 0.0015 -0.5442 -1.85309 0 9.55996e-13 -4.2102e-13 0 0 8.89446e-28
10319 344 0.0015 -0.541376 -1.854 0 -2.95538e-12 1.62182e-12 0 0 5.13844e-27
10337 345 0.0015 -0.0713486 -1.85356 0 2.48797e-12 -1.09456e-11 0 0 5.71382e-26
8048 269 0.0015 0.150617 -1.85348 0 -2.05423e-13 1.86879e-12 0 7.37441e-21 3.42102e-27
10273 343 0.0015 0.426335 -1.85342 0 1.45464e-12 6.788e-12 0 0 2.69086e-26
1487 50 0.0015 0.592486 -1.85392 0 2.82351e-12 5.51392e-12 0 6.81478e-21 2.05424e-26
3519 118 0.0015 0.69126 -1.8522 0 -2.07626e-12 -1.3813e-12 0 0 4.07587e-26
10338 345 0.0015 -0.0720254 -1.85046 0 -1.30604e-12 5.85763e-12 0 0 2.09304e-26
10205 341 0.0015 0.286904 -1.85184 0 -3.04844e-13 2.77347e-12 0 0 7.63354e-27
6006 201 0.0015 0.506013 -1.85168 0 1.86372e-13 4.11605e-13 0 5.99535e-21 1.71179e-27
1488 50 0.0015 0.594712 -1.85101 0 -1.66498e-12 -3.90823e-12 0 6.81478e-21 1.5851e-26
3518 118 0.0015 0.693797 -1.85028 0 6.1846e-12 4.2487e-12 0 1.57149e-20 3.28723e-26
2657 89 0.0015 -0.630446 -1.84923 0 -3.74522e-12 2.59979e-12 0 5.32605e-21 1.43089e-26
1961 66 0.0015 0.0108371 -1.84959 0 8.47556e-13 -8.48437e-12 0 1.56031e-20 4.88546e-26
4772 160 0.0015 0.0782973 -1.84905 0 9.88803e-16 -2.23844e-14 0 5.42976e-21 5.82294e-28
10274 343 0.0015 0.427056 -1.84946 0 -1.30852e-12 -6.10333e-12 0 0 2.18941e-26
1489 50 0.0015 0.596939 -1.8481 0 -3.35183e-13 1.24626e-12 0 6.81478e-21 4.125e-28
3517 118 0.0015 0.696334 -1.84837 0 8.48192e-13 2.86962e-13 0 1.57149e-20 7.6425e-27
2658 89 0.0015 -0.634167 -1.84638 0 7.93662e-13 -7.66051e-13 0 1.06521e-20 4.37976e-27
6038 202 0.0015 -0.34704 -1.84697 0 -2.79929e-13 5.12537e-13 0 0 4.32399e-28
10339 345 0.0015 -0.0727023 -1.84735 0 2.65203e-13 -2.00244e-12 0 0 1.95571e-27
8049 269 0.0015 0.149922 -1.84674 0 1.15768e-13 -9.45561e-13 0 7.37441e-21 2.31398e-27
6541 219 0.0015 0.213251 -1.84656 0 -1.10234e-15 2.46976e-14 0 3.51396e-21 1.20546e-30
4534 152 0.0015 0.362172 -1.84745 0 -1.95105e-13 1.31431e-12 0 0 6.33802e-27
3516 118 0.0015 0.698871 -1.84645 0 -4.42494e-12 -2.59069e-12 0 3.14298e-20 1.14636e-26
8014 268 0.0015 -0.163039 -1.84452 0 2.69684e-14 5.48693e-14 0 3.80484e-21 2.19792e-29
10340 345 0.0015 -0.0733791 -1.84424 0 -5.70627e-13 3.7282e-12 0 0 8.72681e-27
1962 66 0.0015 0.010357 -1.84481 0 -5.01371e-13 5.10447e-12 0 0 2.2291e-26
10206 341 0.0015 0.286103 -1.84511 0 3.49864e-13 -3.02166e-12 0 0 9.34618e-27
10275 343 0.0015 0.427777 -1.84551 0 1.24612e-12 7.09636e-12 0 0 3.02319e-26
1490 50 0.0015 0.599165 -1.84519 0 4.18377e-13 -7.41926e-13 0 0 4.59605e-28
3515 118 0.0015 0.701409 -1.84454 0 2.48083e-12 2.01846e-12 0 1.57149e-20 6.39595e-27
2659 89 0.0015 -0.637888 -1.84352 0 2.90152e-12 -1.90086e-12 0 1.06521e-20 1.0962e-26
6007 201 0.0015 0.509028 -1.84391 0 -8.29733e-13 -2.20939e-12 0 5.99535e-21 7.14876e-27
1491 50 0.0015 0.601391 -1.84228 0 -3.57552e-13 5.75083e-13 0 0 3.49714e-28
3514 118 0.0015 0.703946 -1.84262 0 1.60783e-12 4.60149e-13 0 1.57149e-20 4.27071e-27
2660 89 0.0015 -0.641609 -1.84066 0 -2.88389e-12 2.09443e-12 0 5.32605e-21 1.11457e-26
10341 345 0.0015 -0.074056 -1.84114 0 1.46531e-12 -7.51065e-12 0 0 2.6865e-26
1963 66 0.0015 0.00987681 -1.84004 0 2.55213e-13 -2.53651e-12 0 5.20104e-21 4.34031e-27
10276 343 0.0015 0.428498 -1.84155 0 -1.24612e-12 -7.09636e-12 0 0 3.02319e-26
3513 118 0.0015 0.706483 -1.84071 0 -4.16395e-12 -3.07941e-12 0 1.57149e-20 1.2222e-26
6039 202 0.0015 -0.351842 -1.83924 0 -1.08249e-13 1.4151e-13 0 0 6.87646e-28
10342 345 0.0015 -0.0747328 -1.83803 0 -1.56232e-12 6.77255e-12 0 0 2.35063e-26
4773 160 0.0015 0.0780361 -1.83985 0 -3.23113e-14 1.08565e-12 0 5.42976e-21 1.70099e-27
8050 269 0.0015 0.149226 -1.84 0 3.79368e-14 -5.26161e-13 0 3.6872e-21 3.13076e-28
6542 219 0.0015 0.21269 -1.83947 0 -3.41582e-14 3.41412e-13 0 7.02791e-21 2.6827e-28
10207 341 0.0015 0.285302 -1.83839 0 -2.74832e-13 2.02731e-12 0 0 7.05719e-27
4535 152 0.0015 0.360823 -1.83883 0 -2.46494e-13 1.59539e-12 0 0 4.57415e-27
1492 50 0.0015 0.603618 -1.83936 0 6.74621e-13 -3.18897e-13 0 0 7.32794e-28
3512 118 0.0015 0.70902 -1.83879 0 2.67203e-12 2.61265e-12 0 1.57149e-20 8.61011e-27
2661 89 0.0015 -0.64533 -1.83781 0 -9.43489e-13 7.10523e-13 0 0 5.45807e-27
10277 343 0.0015 0.429219 -1.8376 0 1.30852e-12 6.10333e-12 0 0 2.18941e-26
6008 201 0.0015 0.512043 -1.83614 0 1.74403e-12 4.64241e-12 0 0 3.22928e-26
1493 50 0.0015 0.605844 -1.83645 0 -1.467e-12 -6.54524e-13 0 6.81478e-21 1.01571e-27
3511 118 0.0015 0.711558 -1.83688 0 -3.71902e-13 -5.91783e-13 0 1.57149e-20 3.77017e-28
2662 89 0.0015 -0.649051 -1.83495 0 3.33786e-12 -2.43239e-12 0 0 1.11655e-26
10343 345 0.0015 -0.0754097 -1.83493 0 1.37949e-12 -4.82833e-12 0 0 1.11241e-26
1964 66 0.0015 0.00939668 -1.83526 0 -2.66924e-13 2.5141e-12 0 5.20104e-21 4.27148e-27
2663 89 0.0015 -0.652772 -1.8321 0 -1.62899e-12 8.66768e-13 0 0 6.60859e-27
10171 340 0.0015 -0.234195 -1.83312 0 -1.49888e-13 2.09531e-13 0 0 1.44125e-28
8015 268 0.0015 -0.158597 -1.83216 0 1.09324e-13 3.49734e-13 0 1.90242e-21 4.49605e-28
8051 269 0.0015 0.14853 -1.83326 0 6.44983e-15 3.3331e-15 0 0 5.4139e-28
6543 219 0.0015 0.212128 -1.83239 0 7.79259e-16 1.69159e-13 0 7.02791e-21 8.35051e-28
10278 343 0.0015 0.429939 -1.83364 0 -1.45464e-12 -6.788e-12 0 0 2.69086e-26
1494 50 0.0015 0.60807 -1.83354 0 2.46097e-13 -3.72855e-13 0 6.81478e-21 1.35163e-27
6040 202 0.0015 -0.356645 -1.83151 0 8.28644e-13 -1.33457e-12 0 0 3.70103e-27
10344 345 0.0015 -0.0760865 -1.83182 0 -9.58578e-13 3.13497e-12 0 0 6.52759e-27
1965 66 0.0015 0.00891654 -1.83048 0 4.55048e-14 -4.23232e-13 0 5.20104e-21 2.77518e-27
4774 160 0.0015 0.0777749 -1.83066 0 3.63917e-15 3.88035e-14 0 2.71488e-21 2.93075e-27
10208 341 0.0015 0.284501 -1.83166 0 -4.697e-15 5.07462e-13 0 0 7.397e-28
4536 152 0.0015 0.359475 -1.83021 0 4.56752e-13 -3.00207e-12 0 0 1.13128e-26
1495 50 0.0015 0.610297 -1.83063 0 1.63209e-12 2.04052e-12 0 1.36296e-20 3.83581e-27
2664 89 0.0015 -0.656493 -1.82924 0 -3.03741e-13 4.03846e-13 0 0 2.15816e-28
10345 345 0.0015 -0.0767633 -1.82871 0 5.71263e-13 -2.95838e-12 0 0 5.39281e-27
10279 343 0.0015 0.43066 -1.82968 0 8.11836e-13 4.28873e-12 0 0 1.48636e-26
6009 201 0.0015 0.515058 -1.82837 0 -1.82653e-12 -4.9026e-12 0 5.99535e-21 3.44441e-26
2665 89 0.0015 -0.660213 -1.82639 0 7.33347e-14 3.13475e-13 0 5.32605e-21 7.50386e-29
10172 340 0.0015 -0.238704 -1.82673 0 6.95132e-13 -1.0024e-12 0 0 2.15457e-27
8052 269 0.0015 0.147835 -1.82652 0 -2.37808e-13 2.22317e-12 0 0 6.76461e-27
1496 50 0.0015 0.612523 -1.82772 0 -3.33413e-12 -4.02929e-12 0 1.36296e-20 1.55007e-26
10346 345 0.0015 -0.0774402 -1.82561 0 1.0664e-13 1.62351e-12 0 1.57149e-20 5.65934e-27
1966 66 0.0015 0.0084364 -1.8257 0 3.18348e-13 -3.01924e-12 0 0 7.58364e-27
6544 219 0.0015 0.211567 -1.8253 0 1.07935e-14 -2.40173e-13 0 3.51396e-21 7.41058e-28
10209 341 0.0015 0.2837 -1.82493 0 -2.79428e-14 -1.03007e-13 0 0 1.22056e-27
10280 343 0.0015 0.431381 -1.82573 0 2.39881e-14 -4.22295e-13 0 0 9.03966e-28
1497 50 0.0015 0.614749 -1.8248 0 2.48216e-12 2.49384e-12 0 1.36296e-20 1.2462e-26
2666 89 0.0015 -0.663934 -1.82353 0 -1.80571e-13 1.12989e-13 0 2.13042e-20 3.10556e-28
6041 202 0.0015 -0.361448 -1.82377 0 -1.11893e-12 1.80576e-12 0 0 5.72548e-27
10347 345 0.0015 -0.078117 -1.8225 0 -2.33579e-12 8.31153e-12 0 3.14298e-20 5.41933e-26
2667 89 0.0015 -0.667655 -1.82068 0 -8.89671e-13 -4.60035e-13 0 2.66302e-20 1.21033e-27
10173 340 0.0015 -0.243212 -1.82034 0 -1.87604e-12 2.71155e-12 0 0 1.38501e-26
1967 66 0.0015 0.00795626 -1.82092 0 -3.8123e-13 3.74814e-12 0 5.20104e-21 9.82907e-27
4775 160 0.0015 0.0775136 -1.82146 0 3.11295e-14 -1.34047e-12 0 2.71488e-21 2.35475e-27
4537 152 0.0015 0.358127 -1.82159 0 -2.51443e-13 1.69098e-12 0 0 6.91182e-27
10281 343 0.0015 0.432102 -1.82177 0 -2.01484e-13 1.61971e-14 0 1.24237e-20 3.33614e-28
6010 201 0.0015 0.518074 -1.8206 0 -4.69349e-14 1.98203e-14 0 5.99535e-21 1.56962e-26
1498 50 0.0015 0.616976 -1.82189 0 1.68837e-12 3.94167e-12 0 1.36296e-20 1.75119e-26
8016 268 0.0015 -0.154154 -1.81981 0 -3.93875e-13 -1.13935e-12 0 1.90242e-21 3.11299e-27
10348 345 0.0015 -0.0787939 -1.81939 0 2.78899e-12 -1.11644e-11 0 3.14298e-20 6.5758e-26
8053 269 0.0015 0.147139 -1.81978 0 3.7104e-13 -3.42165e-12 0 0 1.12162e-26
6545 219 0.0015 0.211005 -1.81821 0 1.8618e-13 -2.37782e-12 0 0 8.79075e-27
10210 341 0.0015 0.282899 -1.8182 0 1.48582e-13 -1.19212e-12 0 0 1.38381e-27
1499 50 0.0015 0.619202 -1.81898 0 -2.47793e-12 -4.89323e-12 0 6.81478e-21 1.90905e-26
2668 89 0.0015 -0.671376 -1.81782 0 1.58753e-12 4.64521e-13 0 2.13042e-20 9.81925e-28
6042 202 0.0015 -0.366251 -1.81604 0 1.50622e-12 -2.41615e-12 0 2.74394e-21 1.11573e-26
10349 345 0.0015 -0.0794707 -1.81629 0 -4.41098e-13 1.0466e-12 0 1.57149e-20 1.81217e-26
1968 66 0.0015 0.00747613 -1.81614 0 1.69037e-13 -1.77203e-12 0 5.20104e-21 3.15955e-27
10282 343 0.0015 0.432823 -1.81781 0 9.13835e-14 -1.14768e-12 0 1.24237e-20 7.64003e-28
1500 50 0.0015 0.621428 -1.81607 0 4.95876e-13 1.1883e-12 0 6.81478e-21 1.57873e-27
2669 89 0.0015 -0.675097 -1.81497 0 -2.30828e-12 6.77075e-13 0 5.32605e-21 5.91227e-27
5941 199 0.0015 0.740778 -1.81551 0 9.59757e-14 3.81613e-13 0 2.60052e-21 4.13142e-28
2670 89 0.0015 -0.678818 -1.81211 0 1.82803e-12 -1.1118e-12 0 0 5.89463e-27
10174 340 0.0015 -0.24772 -1.81396 0 3.07211e-12 -4.39192e-12 0 0 3.17077e-26
10350 345 0.0015 -0.0801475 -1.81318 0 -4.80809e-13 2.55205e-12 0 0 5.95094e-27
4776 160 0.0015 0.0772524 -1.81226 0 -2.70984e-15 3.20914e-13 0 2.71488e-21 9.66273e-28
8054 269 0.0015 0.146443 -1.81304 0 -1.69376e-13 1.39157e-12 0 0 4.78283e-27
4538 152 0.0015 0.356779 -1.81297 0 -1.86213e-13 1.24487e-12 0 5.72705e-21 3.96786e-27
10283 343 0.0015 0.433544 -1.81386 0 -3.22412e-13 -4.3672e-13 0 1.24237e-20 2.27924e-27
6011 201 0.0015 0.521089 -1.81283 0 1.4824e-12 3.77428e-12 0 5.99535e-21 1.91917e-26
1969 66 0.0015 0.00699599 -1.81136 0 -1.19035e-13 1.08544e-12 0 5.20104e-21 1.00748e-27
6546 219 0.0015 0.210443 -1.81113 0 -1.42742e-13 1.76924e-12 0 0 8.81245e-27
10211 341 0.0015 0.282098 -1.81148 0 -3.20862e-13 2.89572e-12 0 0 1.02363e-26
6043 202 0.0015 -0.371054 -1.8083 0 -2.16281e-12 3.44413e-12 0 5.48788e-21 2.10879e-26
10284 343 0.0015 0.434265 -1.8099 0 -2.17642e-13 -1.43311e-12 0 0 9.65358e-27
10175 340 0.0015 -0.252228 -1.80757 0 -2.92125e-12 4.1442e-12 0 0 2.89549e-26
8017 268 0.0015 -0.149712 -1.80745 0 3.92639e-13 1.10493e-12 0 1.90242e-21 3.03294e-27
1970 66 0.0015 0.00651585 -1.80658 0 2.84685e-13 -2.40631e-12 0 0 4.30762e-27
8055 269 0.0015 0.145748 -1.8063 0 -1.40736e-14 4.4985e-13 0 0 1.96355e-28
5942 199 0.0015 0.743061 -1.80618 0 1.35406e-13 5.71088e-13 0 2.60052e-21 2.97782e-27