ITEM: TIMESTEP
68370
ITEM: NUMBER OF ATOMS
10500
ITEM: BOX BOUNDS pp pp pp
-1.0249999999999999e+00 1.0249999999999999e+00
-2.0000000000000000e+00 2.0000000000000000e+00
-5.0000000000000003e-02 5.0000000000000003e-02
ITEM: ATOMS id type radius x y z fx fy fz c_bendingE c_stretchingE
10321 345 0.0015 -0.0605191 -1.90326 0 2.36884e-13 -1.51655e-12 0 0 2.0732e-27
6031 202 0.0015 -0.31342 -1.90111 0 -2.95118e-13 4.60306e-13 0 2.74394e-21 7.55895e-28
10322 345 0.0015 -0.061196 -1.90016 0 2.56902e-13 1.10522e-13 0 0 4.00471e-27
8041 269 0.0015 0.155487 -1.90065 0 1.19412e-13 -1.15091e-12 0 0 2.51958e-27
10261 343 0.0015 0.417684 -1.90089 0 -3.50284e-13 -1.41527e-12 0 0 2.36522e-27
1471 50 0.0015 0.556864 -1.90052 0 2.74272e-12 3.48835e-12 0 0 2.00461e-26
10323 345 0.0015 -0.0618728 -1.89705 0 -1.77885e-12 6.73581e-12 0 0 2.84627e-26
1951 66 0.0015 0.0156385 -1.89738 0 1.77429e-14 -3.49101e-13 0 0 1.62611e-28
10262 343 0.0015 0.418405 -1.89694 0 3.22675e-13 5.60775e-13 0 0 3.16392e-27
1472 50 0.0015 0.559091 -1.8976 0 -2.40682e-12 -2.82553e-12 0 0 2.05895e-26
2641 89 0.0015 -0.570912 -1.89491 0 1.01925e-12 -7.82385e-13 0 5.32605e-21 2.15095e-27
1473 50 0.0015 0.561317 -1.89469 0 -1.55272e-12 -2.00214e-12 0 0 3.85361e-27
2642 89 0.0015 -0.574633 -1.89206 0 -2.21092e-12 1.93445e-12 0 5.32605e-21 5.68391e-27
6032 202 0.0015 -0.318223 -1.89337 0 1.09707e-12 -1.68791e-12 0 2.74394e-21 6.19032e-27
10324 345 0.0015 -0.0625496 -1.89394 0 1.74955e-12 -6.8177e-12 0 0 2.86603e-26
1952 66 0.0015 0.0151583 -1.8926 0 1.53566e-13 -9.2073e-13 0 0 2.35048e-27
8042 269 0.0015 0.154791 -1.89391 0 -6.48204e-14 5.33811e-13 0 0 3.24169e-27
10263 343 0.0015 0.419126 -1.89298 0 5.93656e-13 4.116e-12 0 0 1.30382e-26
3540 118 0.0015 0.637977 -1.89243 0 -2.04735e-13 1.03286e-13 0 0 9.03787e-30
6061 203 0.0015 -0.387409 -1.89062 0 4.38858e-12 -4.10385e-14 0 2.48474e-20 8.85864e-27
10325 345 0.0015 -0.0632265 -1.89084 0 -6.02988e-13 1.18041e-12 0 0 2.19389e-27
10231 342 0.0015 0.215 -1.89 0 -2.5955e-13 0 0 0 1.29276e-29
10232 342 0.0015 0.21569 -1.89 0 -1.23196e-12 0 0 0 4.38969e-28
10233 342 0.0015 0.216379 -1.89 0 4.45496e-12 0 0 0 2.10893e-27
10234 342 0.0015 0.217069 -1.89 0 -7.38865e-12 0 0 0 5.43429e-27
10235 342 0.0015 0.217759 -1.89 0 9.23659e-12 0 0 0 8.18576e-27
10236 342 0.0015 0.218448 -1.89 0 -1.00334e-11 0 0 0 9.65847e-27
10237 342 0.0015 0.219138 -1.89 0 1.12647e-11 0 0 0 1.22191e-26
10238 342 0.0015 0.219828 -1.89 0 -1.15543e-11 0 0 0 1.2815e-26
10239 342 0.0015 0.220517 -1.89 0 1.05403e-11 0 0 0 1.0664e-26
10240 342 0.0015 0.221207 -1.89 0 -1.16274e-11 0 0 0 1.31849e-26
10241 342 0.0015 0.221897 -1.89 0 1.33658e-11 0 0 0 1.71137e-26
10242 342 0.0015 0.222586 -1.89 0 -1.09745e-11 0 0 0 1.21647e-26
10243 342 0.0015 0.223276 -1.89 0 7.56953e-12 0 0 0 5.55774e-27
10244 342 0.0015 0.223966 -1.89 0 -8.83749e-12 0 0 0 7.90948e-27
10245 342 0.0015 0.224655 -1.89 0 1.43433e-11 0 0 0 2.08089e-26
10246 342 0.0015 0.225345 -1.89 0 -1.43433e-11 0 0 0 2.08089e-26
10247 342 0.0015 0.226034 -1.89 0 8.83749e-12 0 0 0 7.90948e-27
10248 342 0.0015 0.226724 -1.89 0 -7.56953e-12 0 0 0 5.55774e-27
10249 342 0.0015 0.227414 -1.89 0 1.09745e-11 0 0 0 1.21647e-26
10250 342 0.0015 0.228103 -1.89 0 -1.33658e-11 0 0 0 1.71137e-26
10251 342 0.0015 0.228793 -1.89 0 1.16274e-11 0 0 0 1.31849e-26
10252 342 0.0015 0.229483 -1.89 0 -1.05403e-11 0 0 0 1.0664e-26
10253 342 0.0015 0.230172 -1.89 0 1.15543e-11 0 0 0 1.2815e-26
10254 342 0.0015 0.230862 -1.89 0 -1.12647e-11 0 0 0 1.22191e-26
10255 342 0.0015 0.231552 -1.89 0 1.00334e-11 0 0 0 9.65847e-27
10256 342 0.0015 0.232241 -1.89 0 -9.23659e-12 0 0 0 8.18576e-27
10257 342 0.0015 0.232931 -1.89 0 7.38865e-12 0 0 0 5.43429e-27
10258 342 0.0015 0.233621 -1.89 0 -4.45496e-12 0 0 0 2.10893e-27
10259 342 0.0015 0.23431 -1.89 0 1.23196e-12 0 0 0 4.38969e-28
10260 342 0.0015 0.235 -1.89 0 2.5955e-13 0 0 0 1.29276e-29
6001 201 0.0015 0.490936 -1.89052 0 5.47813e-13 1.36741e-12 0 0 5.02228e-27
1474 50 0.0015 0.563543 -1.89178 0 -8.77278e-13 -2.12274e-12 0 0 1.9783e-26
3539 118 0.0015 0.640514 -1.89051 0 2.11199e-12 1.04791e-12 0 0 4.34484e-27
2643 89 0.0015 -0.578354 -1.8892 0 3.16055e-12 -3.37266e-12 0 5.32605e-21 1.45946e-26
6063 203 0.0015 -0.391043 -1.8889 0 1.28425e-11 3.69564e-12 0 2.48474e-20 3.33616e-26
6064 203 0.0015 -0.392859 -1.88804 0 -1.44826e-11 -4.64457e-13 0 0 4.69977e-26
6062 203 0.0015 -0.389226 -1.88976 0 -8.81773e-12 -2.70433e-12 0 2.48474e-20 1.33155e-26
10264 343 0.0015 0.419847 -1.88903 0 -1.01773e-12 -5.69716e-12 0 1.24237e-20 1.9094e-26
1475 50 0.0015 0.56577 -1.88887 0 2.2134e-12 3.66492e-12 0 0 1.65284e-26
3538 118 0.0015 0.643052 -1.8886 0 -2.83162e-12 -2.17326e-12 0 0 5.95377e-27
2644 89 0.0015 -0.582074 -1.88635 0 -4.92749e-12 5.22869e-12 0 0 3.38082e-26
6066 203 0.0015 -0.396492 -1.88631 0 -7.52066e-13 -2.35648e-12 0 2.48474e-20 3.87827e-28
6065 203 0.0015 -0.394676 -1.88717 0 5.77599e-12 6.0131e-13 0 0 1.83913e-26
7981 267 0.0015 -0.194876 -1.88635 0 1.13698e-12 1.88361e-12 0 0 1.08933e-28
10326 345 0.0015 -0.0639033 -1.88773 0 8.50078e-13 -3.45203e-12 0 0 1.29841e-26
1953 66 0.0015 0.0146782 -1.88782 0 -3.12954e-13 2.27768e-12 0 5.20104e-21 3.56766e-27
8043 269 0.0015 0.154095 -1.88717 0 -8.66758e-14 1.12985e-12 0 0 1.218e-27
3537 118 0.0015 0.645589 -1.88668 0 -4.37938e-12 -2.42079e-12 0 1.57149e-20 3.67496e-26
6068 203 0.0015 -0.400126 -1.88459 0 -3.8326e-12 8.67314e-12 0 7.45423e-20 1.79e-26
6067 203 0.0015 -0.398309 -1.88545 0 2.42265e-12 -7.21571e-14 0 4.96948e-20 1.93849e-27
6033 202 0.0015 -0.323025 -1.88564 0 -9.95424e-13 1.43207e-12 0 2.74394e-21 5.62673e-27
7983 267 0.0015 -0.199527 -1.8846 0 4.43983e-12 6.17222e-12 0 1.00459e-20 2.23826e-27
7982 267 0.0015 -0.197202 -1.88548 0 -4.24409e-12 -5.03524e-12 0 0 2.32531e-27
10327 345 0.0015 -0.0645802 -1.88463 0 6.96257e-14 2.7122e-12 0 0 1.41692e-26
10265 343 0.0015 0.420568 -1.88507 0 4.63661e-13 2.33046e-12 0 2.48474e-20 6.86605e-27
1476 50 0.0015 0.567996 -1.88596 0 1.59948e-12 3.06975e-12 0 0 1.35745e-26
3536 118 0.0015 0.648126 -1.88476 0 9.20602e-12 7.05306e-12 0 1.57149e-20 5.98411e-26
2645 89 0.0015 -0.585795 -1.88349 0 3.12184e-12 -3.40696e-12 0 0 2.29272e-26
6071 203 0.0015 -0.405575 -1.882 0 -4.94317e-13 -1.05074e-11 0 2.48474e-20 1.59593e-26
6070 203 0.0015 -0.403759 -1.88287 0 4.91866e-12 1.24771e-11 0 4.96948e-20 3.13416e-27
6069 203 0.0015 -0.401942 -1.88373 0 1.04863e-12 -1.5114e-11 0 7.45423e-20 1.84328e-26
7985 267 0.0015 -0.204179 -1.88284 0 1.3843e-12 7.54108e-12 0 2.00918e-20 1.85912e-27
7984 267 0.0015 -0.201853 -1.88372 0 -1.17121e-12 -7.17778e-12 0 2.00918e-20 1.83825e-27
1954 66 0.0015 0.0141981 -1.88304 0 6.16066e-14 -2.47166e-13 0 1.04021e-20 2.16031e-27
6002 201 0.0015 0.493952 -1.88275 0 -2.36803e-13 -4.93719e-13 0 5.99535e-21 7.01155e-27
1477 50 0.0015 0.570222 -1.88304 0 9.2082e-13 -1.31908e-12 0 0 2.36551e-26
3535 118 0.0015 0.650663 -1.88285 0 -3.2142e-12 -5.11881e-12 0 1.57149e-20 2.48238e-26
2646 89 0.0015 -0.589516 -1.88064 0 7.70975e-13 -2.09735e-13 0 0 1.79057e-27
6073 203 0.0015 -0.409209 -1.88028 0 8.29343e-12 -1.29426e-11 0 0 4.80069e-26
6072 203 0.0015 -0.407392 -1.88114 0 -7.66678e-12 1.28116e-11 0 0 4.41631e-26
7988 267 0.0015 -0.211156 -1.8802 0 -2.67172e-12 5.01273e-12 0 2.00918e-20 1.01137e-26
7987 267 0.0015 -0.208831 -1.88108 0 -7.88382e-14 -1.61509e-12 0 1.00459e-20 1.56381e-28
7986 267 0.0015 -0.206505 -1.88196 0 -1.75237e-12 -3.86716e-12 0 2.00918e-20 4.30973e-29
8011 268 0.0015 -0.176367 -1.88159 0 4.22129e-13 1.18655e-12 0 0 5.78513e-27
10328 345 0.0015 -0.065257 -1.88152 0 -3.23708e-12 1.00023e-11 0 0 7.71783e-26
8044 269 0.0015 0.1534 -1.88043 0 -8.31485e-14 3.97308e-13 0 0 2.07861e-27
10266 343 0.0015 0.421289 -1.88111 0 6.67033e-14 9.45419e-13 0 3.72711e-20 8.01035e-28
1478 50 0.0015 0.572449 -1.88013 0 -6.84822e-12 -5.98023e-12 0 0 4.38603e-26
3534 118 0.0015 0.653201 -1.88093 0 2.56307e-13 3.62789e-12 0 0 3.75587e-27
10292 344 0.0015 -0.465124 -1.8785 0 -3.11054e-12 2.73807e-12 0 0 6.69928e-27
10291 344 0.0015 -0.4623 -1.87941 0 9.12494e-13 -1.15952e-12 0 0 1.23334e-27
6074 203 0.0015 -0.411025 -1.87942 0 -7.62516e-12 8.36727e-12 0 0 3.10516e-26
6075 203 0.0015 -0.412842 -1.87856 0 5.66583e-12 -5.71669e-13 0 0 1.22973e-26
7990 267 0.0015 -0.215808 -1.87844 0 -2.66168e-13 -2.11655e-12 0 1.00459e-20 3.99627e-27
7989 267 0.0015 -0.213482 -1.87932 0 4.46597e-12 -2.97446e-12 0 1.00459e-20 1.1375e-26
10329 345 0.0015 -0.0659339 -1.87841 0 4.12968e-12 -1.60144e-11 0 0 1.22396e-25
1955 66 0.0015 0.0137179 -1.87827 0 2.93871e-13 -2.25247e-12 0 1.04021e-20 3.80518e-27
10201 341 0.0015 0.290108 -1.87875 0 5.37408e-14 -6.05011e-13 0 0 6.93655e-28
3533 118 0.0015 0.655738 -1.87902 0 -1.96036e-12 -2.77976e-12 0 0 4.93194e-27
2647 89 0.0015 -0.593237 -1.87778 0 1.57296e-12 -1.58991e-12 0 0 1.60347e-26
10294 344 0.0015 -0.470773 -1.87669 0 2.8021e-12 -3.71273e-12 0 0 9.87452e-27
10293 344 0.0015 -0.467948 -1.87759 0 2.12009e-12 -6.42581e-13 0 0 5.57304e-27
6077 203 0.0015 -0.416475 -1.87683 0 9.61574e-13 6.756e-12 0 2.48474e-20 4.54696e-27
6076 203 0.0015 -0.414658 -1.87769 0 -5.1854e-13 -5.82766e-12 0 2.48474e-20 4.54506e-27
6034 202 0.0015 -0.327828 -1.87791 0 2.11913e-12 -3.20498e-12 0 0 3.23295e-26
7992 267 0.0015 -0.22046 -1.87668 0 2.17581e-12 -3.42226e-12 0 0 3.70787e-27
7991 267 0.0015 -0.218134 -1.87756 0 -2.55714e-12 3.92266e-12 0 0 4.93572e-27
10267 343 0.0015 0.42201 -1.87716 0 -9.42322e-14 -1.35162e-12 0 2.48474e-20 1.07543e-27
1479 50 0.0015 0.574675 -1.87722 0 8.18082e-12 7.85549e-12 0 0 6.4015e-26
3532 118 0.0015 0.658275 -1.8771 0 4.51643e-12 2.76103e-12 0 0 1.58424e-26
2648 89 0.0015 -0.596958 -1.87493 0 -8.22373e-12 6.7992e-12 0 5.32605e-21 8.45379e-26
10296 344 0.0015 -0.476421 -1.87487 0 4.46196e-12 -3.12472e-12 0 1.68424e-20 1.19429e-26
10295 344 0.0015 -0.473597 -1.87578 0 -5.46994e-12 4.99438e-12 0 1.68424e-20 1.87001e-26
6080 203 0.0015 -0.421925 -1.87425 0 -7.72372e-12 -5.83571e-12 0 0 1.38106e-26
6079 203 0.0015 -0.420108 -1.87511 0 2.10509e-12 5.87952e-12 0 0 1.36842e-28
6078 203 0.0015 -0.418291 -1.87597 0 -3.41301e-12 -5.82693e-12 0 2.48474e-20 3.10084e-28
7995 267 0.0015 -0.227437 -1.87404 0 4.26842e-12 5.75722e-12 0 1.00459e-20 4.48607e-27
7994 267 0.0015 -0.225111 -1.87492 0 -4.55705e-12 -3.95167e-12 0 1.00459e-20 4.3839e-27
7993 267 0.0015 -0.222785 -1.8758 0 2.80546e-13 3.64115e-12 0 0 1.44714e-27
10330 345 0.0015 -0.0666107 -1.87531 0 -2.77647e-12 1.22453e-11 0 0 7.12909e-26
6003 201 0.0015 0.496967 -1.87498 0 -7.69738e-14 -3.46141e-13 0 5.99535e-21 2.75856e-27
1480 50 0.0015 0.576901 -1.87431 0 -7.99889e-12 -8.16762e-12 0 0 6.56454e-26
3531 118 0.0015 0.660812 -1.87519 0 -8.03409e-12 -5.72698e-12 0 0 4.42936e-26
2649 89 0.0015 -0.600679 -1.87207 0 1.07772e-11 -8.59423e-12 0 5.32605e-21 1.24247e-25
10299 344 0.0015 -0.484893 -1.87215 0 -6.20668e-12 1.08076e-12 0 0 1.62315e-26
10298 344 0.0015 -0.482069 -1.87306 0 4.26892e-12 -1.23292e-12 0 0 8.64131e-27
10297 344 0.0015 -0.479245 -1.87396 0 -3.29555e-12 1.42475e-12 0 1.68424e-20 5.28626e-27
6082 203 0.0015 -0.425558 -1.87252 0 -7.632e-12 -6.78109e-12 0 0 7.11886e-27
6081 203 0.0015 -0.423741 -1.87338 0 1.34789e-11 8.59844e-12 0 0 2.06931e-26
7997 267 0.0015 -0.232089 -1.87228 0 -3.29698e-12 1.62188e-11 0 0 2.77464e-26
7996 267 0.0015 -0.229763 -1.87316 0 3.50247e-13 -1.08099e-11 0 1.00459e-20 9.22919e-27
10331 345 0.0015 -0.0672875 -1.8722 0 1.99637e-12 -9.48223e-12 0 0 4.18269e-26
1956 66 0.0015 0.0132378 -1.87349 0 1.68557e-13 -3.03397e-12 0 5.20104e-21 3.05393e-26
8045 269 0.0015 0.152704 -1.87369 0 4.96979e-13 -4.53655e-12 0 0 2.66065e-26
10202 341 0.0015 0.289307 -1.87202 0 -1.8975e-13 1.96817e-12 0 3.6872e-21 4.22412e-27
4531 152 0.0015 0.366216 -1.8733 0 4.19155e-15 -4.93448e-14 0 0 5.91247e-30
10268 343 0.0015 0.422731 -1.8732 0 9.14287e-14 1.3906e-12 0 1.24237e-20 1.14813e-27
3530 118 0.0015 0.66335 -1.87327 0 5.0226e-12 4.88698e-12 0 0 3.0909e-26
10301 344 0.0015 -0.490541 -1.87033 0 2.19349e-12 -2.51588e-12 0 1.68424e-20 4.02136e-27
10300 344 0.0015 -0.487717 -1.87124 0 1.89236e-12 1.312e-12 0 0 1.3363e-26
6084 203 0.0015 -0.429191 -1.8708 0 -1.18041e-12 5.45715e-12 0 0 5.25759e-27
6083 203 0.0015 -0.427374 -1.87166 0 -5.51272e-13 -3.04018e-12 0 0 1.83135e-28
6035 202 0.0015 -0.332631 -1.87017 0 -3.61555e-12 5.62802e-12 0 0 5.6811e-26
7999 267 0.0015 -0.23674 -1.87052 0 1.90184e-13 4.10996e-12 0 0 1.3977e-26
7998 267 0.0015 -0.234415 -1.8714 0 4.00134e-12 -1.47474e-11 0 0 2.84504e-26
1481 50 0.0015 0.579128 -1.8714 0 4.30185e-12 4.67115e-12 0 0 3.55437e-26
3529 118 0.0015 0.665887 -1.87136 0 -1.30783e-12 -2.53182e-12 0 0 2.94684e-27
2650 89 0.0015 -0.6044 -1.86922 0 -8.62614e-12 6.84702e-12 0 1.06521e-20 8.12925e-26
10303 344 0.0015 -0.49619 -1.86852 0 -6.72529e-12 1.45948e-12 0 3.36849e-20 2.17871e-26
10302 344 0.0015 -0.493366 -1.86943 0 3.98878e-12 -1.66169e-13 0 3.36849e-20 1.83125e-26
6087 203 0.0015 -0.434641 -1.86821 0 7.08408e-12 1.16024e-11 0 0 1.21729e-27
6085 203 0.0015 -0.431008 -1.86994 0 7.46878e-12 3.64888e-12 0 0 7.73567e-27
6086 203 0.0015 -0.432824 -1.86908 0 -7.81346e-12 -1.15972e-11 0 0 2.55119e-27
8001 267 0.0015 -0.241392 -1.86876 0 -1.41997e-12 -2.65271e-12 0 0 5.72576e-27
8000 267 0.0015 -0.239066 -1.86964 0 -3.1301e-12 3.90706e-12 0 0 6.55935e-27
8012 268 0.0015 -0.171924 -1.86923 0 8.40068e-14 2.02421e-13 0 0 1.37561e-26
10332 345 0.0015 -0.0679644 -1.86909 0 -2.15719e-12 1.09533e-11 0 0 5.75189e-26
1957 66 0.0015 0.0127576 -1.86871 0 -8.36833e-13 9.29209e-12 0 0 5.80981e-26
10269 343 0.0015 0.423451 -1.86924 0 -6.34497e-13 -3.9481e-12 0 0 1.17313e-26
1482 50 0.0015 0.581354 -1.86848 0 -6.10979e-13 -1.19118e-12 0 0 9.88995e-28
3528 118 0.0015 0.668424 -1.86944 0 1.71632e-12 2.26299e-12 0 0 3.30368e-27
2651 89 0.0015 -0.608121 -1.86636 0 5.53782e-12 -4.25401e-12 0 5.32605e-21 3.4772e-26
10305 344 0.0015 -0.501838 -1.8667 0 1.18151e-11 -2.52028e-12 0 0 6.97728e-26
10304 344 0.0015 -0.499014 -1.86761 0 -1.37225e-12 2.02756e-14 0 1.68424e-20 1.41838e-26
6089 203 0.0015 -0.438274 -1.86649 0 4.12305e-12 3.47426e-12 0 0 1.4484e-27
6088 203 0.0015 -0.436457 -1.86735 0 -6.78164e-12 -7.73875e-12 0 0 2.21046e-27
8004 267 0.0015 -0.248369 -1.86612 0 8.71084e-12 -5.28898e-12 0 1.00459e-20 3.4736e-26
8003 267 0.0015 -0.246044 -1.867 0 -8.19906e-12 1.48488e-12 0 1.00459e-20 2.38364e-26
8002 267 0.0015 -0.243718 -1.86788 0 6.06369e-12 1.06625e-13 0 1.00459e-20 1.14518e-26
8046 269 0.0015 0.152008 -1.86695 0 -9.05348e-13 8.87016e-12 0 0 7.72833e-26
6004 201 0.0015 0.499982 -1.86721 0 -7.14802e-13 -1.64707e-12 0 5.99535e-21 4.20113e-27
3527 118 0.0015 0.670962 -1.86752 0 2.83927e-13 -5.31161e-13 0 1.57149e-20 2.83944e-27
10307 344 0.0015 -0.507486 -1.86489 0 5.73974e-12 -2.6824e-12 0 1.68424e-20 2.49499e-26
10306 344 0.0015 -0.504662 -1.8658 0 -1.33921e-11 3.89295e-12 0 1.68424e-20 8.39453e-26
6090 203 0.0015 -0.440091 -1.86563 0 -1.29248e-12 -6.21102e-13 0 0 4.53906e-28
8006 267 0.0015 -0.253021 -1.86436 0 2.53547e-12 -2.14599e-12 0 0 5.78634e-27
8005 267 0.0015 -0.250695 -1.86524 0 -6.08162e-12 6.87571e-12 0 0 2.46873e-26
10333 345 0.0015 -0.0686412 -1.86599 0 3.41352e-12 -1.80987e-11 0 1.57149e-20 1.60107e-25
10203 341 0.0015 0.288506 -1.8653 0 3.582e-13 -3.18986e-12 0 3.6872e-21 9.90278e-27
4532 152 0.0015 0.364868 -1.86469 0 3.2969e-14 -1.44831e-13 0 5.72705e-21 1.00512e-28
10270 343 0.0015 0.424172 -1.86529 0 2.1022e-12 1.06979e-11 0 0 7.85181e-26
1483 50 0.0015 0.58358 -1.86557 0 8.93297e-13 1.73035e-12 0 0 1.88194e-27
3526 118 0.0015 0.673499 -1.86561 0 -2.11479e-12 -6.26327e-13 0 3.14298e-20 1.94543e-27
2652 89 0.0015 -0.611842 -1.86351 0 -2.30288e-12 1.27138e-12 0 5.32605e-21 7.65712e-27
10310 344 0.0015 -0.515959 -1.86217 0 1.94782e-13 9.80126e-13 0 1.68424e-20 6.66399e-27
10309 344 0.0015 -0.513134 -1.86307 0 -4.89871e-12 8.83608e-13 0 1.68424e-20 1.0466e-26
10308 344 0.0015 -0.51031 -1.86398 0 2.35412e-12 3.5376e-13 0 3.36849e-20 7.91612e-27
6036 202 0.0015 -0.337434 -1.86244 0 1.41e-12 -2.08608e-12 0 0 2.56074e-26
8008 267 0.0015 -0.257673 -1.8626 0 5.17184e-13 1.34284e-13 0 0 6.58857e-28
8007 267 0.0015 -0.255347 -1.86348 0 -7.2542e-13 -2.4559e-12 0 0 1.74108e-28
10334 345 0.0015 -0.0693181 -1.86288 0 -4.10044e-12 2.14628e-11 0 1.57149e-20 2.11587e-25
1958 66 0.0015 0.0122775 -1.86393 0 4.76079e-13 -4.87426e-12 0 5.20104e-21 3.05995e-26
1484 50 0.0015 0.585807 -1.86266 0 -8.9457e-13 -1.37311e-12 0 0 1.45271e-27
3525 118 0.0015 0.676036 -1.86369 0 2.11479e-12 6.26327e-13 0 3.14298e-20 1.94543e-27
2653 89 0.0015 -0.615563 -1.86065 0 5.60926e-13 3.06934e-13 0 0 5.11518e-29
10312 344 0.0015 -0.521607 -1.86035 0 2.22459e-12 -1.98674e-13 0 1.68424e-20 8.9233e-27
10311 344 0.0015 -0.518783 -1.86126 0 2.37429e-12 -2.52926e-12 0 1.68424e-20 4.29165e-27
8010 267 0.0015 -0.262324 -1.86085 0 1.74695e-12 -2.29195e-12 0 0 4.12834e-27
8009 267 0.0015 -0.259998 -1.86172 0 -2.116e-12 3.78511e-12 0 0 4.6552e-27
8047 269 0.0015 0.151313 -1.86021 0 7.33427e-13 -7.57349e-12 0 0 6.25558e-26
10271 343 0.0015 0.424893 -1.86133 0 -2.40561e-12 -1.16753e-11 0 0 8.67517e-26
3524 118 0.0015 0.678573 -1.86178 0 -2.83927e-13 5.31161e-13 0 1.57149e-20 2.83944e-27
10314 344 0.0015 -0.527255 -1.85854 0 4.54826e-12 -4.39001e-12 0 0 1.64254e-26
10313 344 0.0015 -0.524431 -1.85944 0 -6.51418e-12 3.81264e-12 0 1.68424e-20 2.28447e-26
10335 345 0.0015 -0.0699949 -1.85978 0 2.38319e-12 -1.14689e-11 0 1.57149e-20 9.4001e-26
1959 66 0.0015 0.0117974 -1.85915 0 3.93281e-13 -4.2187e-12 0 5.20104e-21 2.52199e-26
4771 160 0.0015 0.0785585 -1.85825 0 -3.79211e-14 1.34469e-12 0 0 4.62518e-27
10204 341 0.0015 0.287705 -1.85857 0 -6.91988e-13 5.51463e-12 0 3.6872e-21 3.23813e-26
6005 201 0.0015 0.502997 -1.85945 0 -2.18925e-14 -3.09641e-13 0 0 8.73913e-27
1485 50 0.0015 0.588033 -1.85975 0 1.45052e-12 2.15879e-12 0 0 4.41403e-27
3523 118 0.0015 0.681111 -1.85986 0 -1.71632e-12 -2.26299e-12 0 0 3.30368e-27
2654 89 0.0015 -0.619284 -1.8578 0 -3.7562e-13 -1.52675e-13 0 5.32605e-21 2.94269e-29
10316 344 0.0015 -0.532903 -1.85672 0 -2.64685e-12 -1.33792e-12 0 3.36849e-20 9.75423e-27
10315 344 0.0015 -0.530079 -1.85763 0 -1.46998e-12 3.88274e-12 0 1.68424e-20 2.79845e-27
8013 268 0.0015 -0.167482 -1.85688 0 -8.61792e-13 -2.37035e-12 0 0 1.19451e-26
10336 345 0.0015 -0.0706718 -1.85667 0 -9.05099e-13 2.05211e-12 0 0 2.42661e-27
4533 152 0.0015 0.36352 -1.85607 0 -1.96717e-13 1.1945e-12 0 1.14541e-20 2.58107e-27
10272 343 0.0015 0.425614 -1.85738 0 8.10647e-13 3.27257e-12 0 0 1.97657e-26
1486 50 0.0015 0.59026 -1.85684 0 -1.45052e-12 -2.15879e-12 0 0 4.41403e-27
3522 118 0.0015 0.683648 -1.85795 0 1.30783e-12 2.53182e-12 0 0 2.94684e-27
3521 118 0.0015 0.686185 -1.85603 0 -5.0226e-12 -4.88698e-12 0 0 3.0909e-26
2655 89 0.0015 -0.623004 -1.85494 0 7.7026e-13 -8.91145e-13 0 5.32605e-21 1.38589e-27
10318 344 0.0015 -0.538552 -1.85491 0 -6.26085e-12 2.19902e-12 0 3.36849e-20 2.49035e-26
10317 344 0.0015 -0.535727 -1.85581 0 8.09999e-12 -2.87673e-12 0 3.36849e-20 3.22237e-26
6037 202 0.0015 -0.342237 -1.85471 0 4.43506e-13 -8.57905e-13 0 2.74394e-21 1.25261e-27
1960 66 0.0015 0.0113172 -1.85437 0 -4.67996e-13 4.87963e-12 0 5.20104e-21 2.56157e-26
3520 118 0.0015 0.688722 -1.85412 0 8.03409e-12 5.72698e-12 0 0 4.42936e-26
2656 89 0.0015 -0.626725 -1.85209 0 -5.73462e-13 1.67828e-12 0 5.32605e-21 1.6317e-27
10320 344 0.0015 -0.5442 -1.85309 0 -8.66852e-14 -7.58813e-13 0 1.68424e-20 1.84428e-29
10319 344 0.0015 -0.541376 -1.854 0 1.45845e-12 8.14062e-13 0 1.68424e-20 1.38772e-27
10337 345 0.0015 -0.0713486 -1.85356 0 8.68988e-13 -6.68615e-13 0 0 4.40786e-28
8048 269 0.0015 0.150617 -1.85348 0 -8.95725e-14 1.3896e-12 0 3.6872e-21 1.19861e-26
10273 343 0.0015 0.426335 -1.85342 0 8.97914e-14 2.38439e-12 0 0 3.49206e-27
1487 50 0.0015 0.592486 -1.85392 0 8.9457e-13 1.37311e-12 0 0 1.45271e-27
3519 118 0.0015 0.69126 -1.8522 0 -4.51643e-12 -2.76103e-12 0 0 1.58424e-26
10338 345 0.0015 -0.0720254 -1.85046 0 5.3378e-14 -4.26588e-12 0 0 1.65514e-26
10205 341 0.0015 0.286904 -1.85184 0 7.95865e-13 -6.16914e-12 0 0 3.77929e-26
6006 201 0.0015 0.506013 -1.85168 0 1.08899e-12 3.07323e-12 0 0 1.23544e-26
1488 50 0.0015 0.594712 -1.85101 0 -8.93297e-13 -1.73035e-12 0 0 1.88194e-27
3518 118 0.0015 0.693797 -1.85028 0 1.96036e-12 2.77976e-12 0 0 4.93194e-27
2657 89 0.0015 -0.630446 -1.84923 0 -2.74898e-12 4.58149e-13 0 0 1.13258e-26
1961 66 0.0015 0.0108371 -1.84959 0 -3.45267e-13 3.63906e-12 0 5.20104e-21 2.40681e-26
4772 160 0.0015 0.0782973 -1.84905 0 4.84229e-14 -1.78014e-12 0 0 5.11008e-27
10274 343 0.0015 0.427056 -1.84946 0 -4.20683e-14 -4.03438e-12 0 0 9.18378e-27
1489 50 0.0015 0.596939 -1.8481 0 6.10979e-13 1.19118e-12 0 0 9.88995e-28
3517 118 0.0015 0.696334 -1.84837 0 -2.56307e-13 -3.62789e-12 0 0 3.75587e-27
2658 89 0.0015 -0.634167 -1.84638 0 5.64645e-12 -3.13119e-12 0 0 2.67668e-26
6038 202 0.0015 -0.34704 -1.84697 0 -7.65749e-14 2.09232e-13 0 2.74394e-21 3.66477e-28
10339 345 0.0015 -0.0727023 -1.84735 0 3.32505e-13 2.97156e-12 0 0 1.85038e-26
8049 269 0.0015 0.149922 -1.84674 0 -2.10497e-13 1.70239e-12 0 7.37441e-21 2.79812e-27
6541 219 0.0015 0.213251 -1.84656 0 1.65673e-13 -1.91404e-12 0 0 7.2881e-27
4534 152 0.0015 0.362172 -1.84745 0 1.75196e-13 -1.14317e-12 0 1.14541e-20 2.5364e-27
3516 118 0.0015 0.698871 -1.84645 0 3.2142e-12 5.11881e-12 0 1.57149e-20 2.48238e-26
8014 268 0.0015 -0.163039 -1.84452 0 3.99193e-13 1.10446e-12 0 0 4.03634e-27
10340 345 0.0015 -0.0733791 -1.84424 0 -2.93696e-13 -1.53075e-12 0 0 9.53865e-27
1962 66 0.0015 0.010357 -1.84481 0 2.11188e-13 -2.32873e-12 0 5.20104e-21 2.83352e-26
10206 341 0.0015 0.286103 -1.84511 0 -1.93821e-13 1.26565e-12 0 0 1.4597e-26
10275 343 0.0015 0.427777 -1.84551 0 -6.15822e-14 4.82539e-12 0 0 1.25289e-26
1490 50 0.0015 0.599165 -1.84519 0 -4.30185e-12 -4.67115e-12 0 0 3.55437e-26
3515 118 0.0015 0.701409 -1.84454 0 -9.20602e-12 -7.05306e-12 0 1.57149e-20 5.98411e-26
2659 89 0.0015 -0.637888 -1.84352 0 -5.69146e-12 3.73472e-12 0 1.59781e-20 3.00387e-26
6007 201 0.0015 0.509028 -1.84391 0 -1.19136e-12 -3.31406e-12 0 0 1.43462e-26
1491 50 0.0015 0.601391 -1.84228 0 7.99889e-12 8.16762e-12 0 0 6.56454e-26
3514 118 0.0015 0.703946 -1.84262 0 4.37938e-12 2.42079e-12 0 1.57149e-20 3.67496e-26
2660 89 0.0015 -0.641609 -1.84066 0 4.23573e-12 -2.85787e-12 0 2.13042e-20 1.84748e-26
10341 345 0.0015 -0.074056 -1.84114 0 -2.07718e-12 8.59766e-12 0 1.57149e-20 3.84701e-26
1963 66 0.0015 0.00987681 -1.84004 0 1.88136e-13 -2.33091e-12 0 1.04021e-20 4.9677e-27
10276 343 0.0015 0.428498 -1.84155 0 6.15822e-14 -4.82539e-12 0 0 1.25289e-26
3513 118 0.0015 0.706483 -1.84071 0 2.83162e-12 2.17326e-12 0 0 5.95377e-27
6039 202 0.0015 -0.351842 -1.83924 0 1.28496e-13 -2.99319e-13 0 2.74394e-21 5.80474e-28
10342 345 0.0015 -0.0747328 -1.83803 0 2.43107e-12 -6.90505e-12 0 3.14298e-20 3.25094e-26
4773 160 0.0015 0.0780361 -1.83985 0 2.39661e-14 -6.34852e-13 0 0 3.41578e-27
8050 269 0.0015 0.149226 -1.84 0 5.0687e-14 -4.00668e-13 0 1.10616e-20 1.35711e-27
6542 219 0.0015 0.21269 -1.83947 0 -5.84521e-14 1.83295e-13 0 3.51396e-21 1.32241e-26
10207 341 0.0015 0.285302 -1.83839 0 -3.62275e-13 2.94975e-12 0 0 8.57141e-27
4535 152 0.0015 0.360823 -1.83883 0 -1.31621e-14 1.76009e-13 0 5.72705e-21 5.24657e-29
1492 50 0.0015 0.603618 -1.83936 0 -8.18082e-12 -7.85549e-12 0 0 6.4015e-26
3512 118 0.0015 0.70902 -1.83879 0 -2.11199e-12 -1.04791e-12 0 0 4.34484e-27
2661 89 0.0015 -0.64533 -1.83781 0 -4.99564e-13 7.21168e-14 0 2.13042e-20 6.49673e-27
10277 343 0.0015 0.429219 -1.8376 0 4.20683e-14 4.03438e-12 0 0 9.18378e-27
6008 201 0.0015 0.512043 -1.83614 0 1.61553e-12 4.25558e-12 0 0 2.51374e-26
1493 50 0.0015 0.605844 -1.83645 0 6.84822e-12 5.98023e-12 0 0 4.38603e-26
3511 118 0.0015 0.711558 -1.83688 0 2.04735e-13 -1.03286e-13 0 0 9.03787e-30
2662 89 0.0015 -0.649051 -1.83495 0 -3.81167e-13 7.2317e-13 0 1.06521e-20 2.82191e-27
10343 345 0.0015 -0.0754097 -1.83493 0 -2.55872e-12 6.95113e-12 0 3.14298e-20 3.32683e-26
1964 66 0.0015 0.00939668 -1.83526 0 3.66983e-13 -2.62313e-12 0 5.20104e-21 1.32095e-26
2663 89 0.0015 -0.652772 -1.8321 0 -8.98912e-14 -4.01464e-13 0 5.32605e-21 1.25071e-27
10171 340 0.0015 -0.234195 -1.83312 0 8.7088e-13 -1.18781e-12 0 0 4.7094e-27
8015 268 0.0015 -0.158597 -1.83216 0 -3.57736e-13 -1.00476e-12 0 0 3.25758e-27
8051 269 0.0015 0.14853 -1.83326 0 2.66763e-13 -2.47942e-12 0 1.10616e-20 8.7872e-27
6543 219 0.0015 0.212128 -1.83239 0 -2.30776e-13 3.88528e-12 0 3.51396e-21 1.51283e-26
10278 343 0.0015 0.429939 -1.83364 0 -8.97914e-14 -2.38439e-12 0 0 3.49206e-27
1494 50 0.0015 0.60807 -1.83354 0 -9.2082e-13 1.31908e-12 0 0 2.36551e-26
6040 202 0.0015 -0.356645 -1.83151 0 -1.09338e-12 1.88117e-12 0 0 7.97789e-27
10344 345 0.0015 -0.0760865 -1.83182 0 3.09322e-12 -1.06228e-11 0 1.57149e-20 5.41841e-26
1965 66 0.0015 0.00891654 -1.83048 0 -8.22069e-13 7.05927e-12 0 5.20104e-21 3.42035e-26
4774 160 0.0015 0.0777749 -1.83066 0 -1.061e-13 3.46121e-12 0 0 1.75545e-26
10208 341 0.0015 0.284501 -1.83166 0 4.51591e-13 -3.31763e-12 0 0 1.05669e-26
4536 152 0.0015 0.359475 -1.83021 0 2.59436e-13 -1.67795e-12 0 0 6.72421e-27
1495 50 0.0015 0.610297 -1.83063 0 -1.59948e-12 -3.06975e-12 0 0 1.35745e-26
2664 89 0.0015 -0.656493 -1.82924 0 -2.08464e-12 1.83817e-12 0 5.32605e-21 5.9861e-27
10345 345 0.0015 -0.0767633 -1.82871 0 -8.04628e-13 1.04563e-12 0 0 3.56607e-26
10279 343 0.0015 0.43066 -1.82968 0 -8.10647e-13 -3.27257e-12 0 0 1.97657e-26
6009 201 0.0015 0.515058 -1.82837 0 -1.51673e-12 -3.71834e-12 0 0 2.13927e-26
2665 89 0.0015 -0.660213 -1.82639 0 1.05452e-12 -1.03523e-12 0 0 5.5746e-27
10172 340 0.0015 -0.238704 -1.82673 0 -1.35546e-12 1.7529e-12 0 6.39056e-21 5.90213e-27
8052 269 0.0015 0.147835 -1.82652 0 -6.41644e-13 6.12655e-12 0 7.37441e-21 3.91018e-26
1496 50 0.0015 0.612523 -1.82772 0 -2.2134e-12 -3.66492e-12 0 0 1.65284e-26
10346 345 0.0015 -0.0774402 -1.82561 0 -1.23571e-12 7.23237e-12 0 0 2.3787e-26
1966 66 0.0015 0.0084364 -1.8257 0 7.1005e-13 -5.94453e-12 0 5.20104e-21 2.65751e-26
6544 219 0.0015 0.211567 -1.8253 0 1.38186e-13 -3.13189e-12 0 3.51396e-21 1.10712e-26
10209 341 0.0015 0.2837 -1.82493 0 -1.87286e-13 1.42412e-12 0 0 4.85824e-27
10280 343 0.0015 0.431381 -1.82573 0 2.40561e-12 1.16753e-11 0 0 8.67517e-26
1497 50 0.0015 0.614749 -1.8248 0 8.77278e-13 2.12274e-12 0 0 1.9783e-26
2666 89 0.0015 -0.663934 -1.82353 0 2.03725e-12 -1.19184e-12 0 0 4.63559e-27
6041 202 0.0015 -0.361448 -1.82377 0 1.24297e-12 -2.06646e-12 0 0 8.66784e-27
10347 345 0.0015 -0.078117 -1.8225 0 1.12305e-12 -4.72702e-12 0 0 1.23432e-26
2667 89 0.0015 -0.667655 -1.82068 0 -4.52875e-12 3.06217e-12 0 5.32605e-21 2.15983e-26
10173 340 0.0015 -0.243212 -1.82034 0 7.78781e-14 1.32458e-13 0 6.39056e-21 2.59793e-27
1967 66 0.0015 0.00795626 -1.82092 0 -1.92854e-13 9.08611e-13 0 5.20104e-21 6.81487e-27
4775 160 0.0015 0.0775136 -1.82146 0 1.14697e-13 -3.80471e-12 0 0 1.97371e-26
4537 152 0.0015 0.358127 -1.82159 0 -3.177e-13 1.98965e-12 0 0 7.01741e-27
10281 343 0.0015 0.432102 -1.82177 0 -2.1022e-12 -1.06979e-11 0 0 7.85181e-26
6010 201 0.0015 0.518074 -1.8206 0 2.66037e-13 3.27625e-13 0 0 5.17786e-27
1498 50 0.0015 0.616976 -1.82189 0 1.55272e-12 2.00214e-12 0 0 3.85361e-27
8016 268 0.0015 -0.154154 -1.81981 0 5.9622e-13 1.66956e-12 0 0 5.74962e-27
10348 345 0.0015 -0.0787939 -1.81939 0 -1.20709e-12 2.71322e-12 0 0 3.74227e-27
8053 269 0.0015 0.147139 -1.81978 0 3.51128e-13 -3.49367e-12 0 7.37441e-21 3.10699e-26
6545 219 0.0015 0.211005 -1.81821 0 9.63275e-14 1.21863e-13 0 0 3.34474e-27
10210 341 0.0015 0.282899 -1.8182 0 -3.39995e-13 2.20558e-12 0 0 8.09812e-27
1499 50 0.0015 0.619202 -1.81898 0 2.40682e-12 2.82553e-12 0 0 2.05895e-26
2668 89 0.0015 -0.671376 -1.81782 0 3.6407e-12 -2.21437e-12 0 1.06521e-20 1.77836e-26
6042 202 0.0015 -0.366251 -1.81604 0 1.87204e-13 -3.04054e-13 0 0 4.0241e-27
10349 345 0.0015 -0.0794707 -1.81629 0 9.12404e-13 -7.59439e-13 0 0 2.35145e-27
1968 66 0.0015 0.00747613 -1.81614 0 -6.81285e-14 1.28903e-12 0 5.20104e-21 1.58786e-27
10282 343 0.0015 0.432823 -1.81781 0 6.34497e-13 3.9481e-12 0 0 1.17313e-26
1500 50 0.0015 0.621428 -1.81607 0 -2.74272e-12 -3.48835e-12 0 0 2.00461e-26
2669 89 0.0015 -0.675097 -1.81497 0 4.53019e-13 -9.073e-13 0 1.06521e-20 3.38642e-27
5941 199 0.0015 0.740778 -1.81551 0 -3.37932e-13 -1.38461e-12 0 0 5.42014e-27
2670 89 0.0015 -0.678818 -1.81211 0 -1.09479e-12 1.03854e-12 0 5.32605e-21 2.9344e-27
10174 340 0.0015 -0.24772 -1.81396 0 -4.96059e-14 -4.72323e-14 0 6.39056e-21 2.77573e-27
10350 345 0.0015 -0.0801475 -1.81318 0 -1.6529e-13 -6.36262e-13 0 0 3.03754e-28
4776 160 0.0015 0.0772524 -1.81226 0 -4.474e-14 1.35162e-12 0 0 5.12334e-27
8054 269 0.0015 0.146443 -1.81304 0 1.96271e-13 -1.60633e-12 0 3.6872e-21 2.78037e-27
4538 152 0.0015 0.356779 -1.81297 0 2.11369e-14 -2.15886e-13 0 0 3.38473e-28
10283 343 0.0015 0.433544 -1.81386 0 -9.14287e-14 -1.3906e-12 0 1.24237e-20 1.14813e-27
6011 201 0.0015 0.521089 -1.81283 0 1.71269e-14 2.54212e-13 0 0 2.44101e-27
1969 66 0.0015 0.00699599 -1.81136 0 3.40911e-14 -4.12624e-13 0 0 1.14844e-28
6546 219 0.0015 0.210443 -1.81113 0 -8.64871e-14 3.94549e-13 0 3.51396e-21 1.88626e-27
10211 341 0.0015 0.282098 -1.81148 0 3.98917e-13 -2.16746e-12 0 0 8.08106e-27
6043 202 0.0015 -0.371054 -1.8083 0 7.4599e-14 -1.65839e-13 0 0 6.64389e-27
10284 343 0.0015 0.434265 -1.8099 0 9.42322e-14 1.35162e-12 0 2.48474e-20 1.07543e-27
10175 340 0.0015 -0.252228 -1.80757 0 1.3759e-12 -2.10148e-12 0 0 7.76417e-27
8017 268 0.0015 -0.149712 -1.80745 0 -3.13107e-13 -8.73738e-13 0 0 2.58462e-27
1970 66 0.0015 0.00651585 -1.80658 0 -2.11214e-13 1.73674e-12 0 5.20104e-21 3.28081e-27
8055 269 0.0015 0.145748 -1.8063 0 1.5909e-13 -1.98871e-12 0 3.6872e-21 2.02865e-26
5942 199 0.0015 0.743061 -1.80618 0 5.88339e-13 2.43573e-12 0 0 8.53538e-27
6547 219 0.0015 0.209882 -1.80404 0 -2.1284e-13 2.7813e-12 0 3.51396e-21 1.11223e-26
10212 341 0.0015 0.281297 -1.80475 0 -1.10174e-13 -1.88341e-13 0 0 2.07932e-28
4539 152 0.0015 0.35543 -1.80435 0 -1.29497e-14 2.764e-13 0 0 4.45858e-28