ITEM: TIMESTEP
74820
ITEM: NUMBER OF ATOMS
10500
ITEM: BOX BOUNDS pp pp pp
-1.0249999999999999e+00 1.0249999999999999e+00
-2.0000000000000000e+00 2.0000000000000000e+00
-5.0000000000000003e-02 5.0000000000000003e-02
ITEM: ATOMS id type radius x y z fx fy fz c_bendingE c_stretchingE
10321 345 0.0015 -0.0605191 -1.90326 0 3.55585e-13 -2.49202e-12 0 0 5.56616e-27
6031 202 0.0015 -0.31342 -1.90111 0 1.48335e-13 -2.56326e-13 0 2.74394e-21 2.21568e-28
10322 345 0.0015 -0.061196 -1.90016 0 5.00527e-13 2.83107e-13 0 0 1.04039e-26
8041 269 0.0015 0.155487 -1.90065 0 -1.6626e-13 1.78608e-12 0 0 6.05476e-27
10261 343 0.0015 0.417684 -1.90089 0 -3.56436e-13 -2.5134e-12 0 0 7.18726e-27
1471 50 0.0015 0.556864 -1.90052 0 2.48883e-12 3.26883e-12 0 0 1.71869e-26
10323 345 0.0015 -0.0618728 -1.89705 0 -1.10058e-12 1.62727e-12 0 0 5.07307e-27
1951 66 0.0015 0.0156385 -1.89738 0 -1.23355e-13 1.38361e-12 0 0 2.57398e-27
10262 343 0.0015 0.418405 -1.89694 0 5.75309e-13 4.37387e-12 0 0 1.10917e-26
1472 50 0.0015 0.559091 -1.8976 0 -4.77874e-12 -5.96663e-12 0 0 2.99034e-26
2641 89 0.0015 -0.570912 -1.89491 0 -3.81342e-13 -7.78457e-14 0 0 8.48163e-29
1473 50 0.0015 0.561317 -1.89469 0 5.45807e-12 5.90685e-12 0 0 3.3094e-26
2642 89 0.0015 -0.574633 -1.89206 0 1.7658e-12 -2.86565e-13 0 0 2.35552e-27
6032 202 0.0015 -0.318223 -1.89337 0 -9.4415e-13 1.58908e-12 0 2.74394e-21 6.31303e-27
10324 345 0.0015 -0.0625496 -1.89394 0 8.71315e-13 -4.15649e-13 0 0 1.31932e-27
1952 66 0.0015 0.0151583 -1.8926 0 9.47195e-13 -1.02374e-11 0 5.20104e-21 1.08057e-25
8042 269 0.0015 0.154791 -1.89391 0 3.9699e-13 -4.37603e-12 0 0 1.87757e-26
10263 343 0.0015 0.419126 -1.89298 0 -2.50775e-13 -2.29447e-12 0 0 4.11354e-27
3540 118 0.0015 0.637977 -1.89243 0 -1.43058e-12 -8.68095e-13 0 0 2.44755e-27
6061 203 0.0015 -0.387409 -1.89062 0 5.1709e-13 -4.7722e-12 0 0 3.52629e-27
10325 345 0.0015 -0.0632265 -1.89084 0 -6.58973e-13 -7.31895e-13 0 1.57149e-20 3.58449e-27
10231 342 0.0015 0.215 -1.89 0 -7.86679e-14 0 0 0 1.18555e-30
10232 342 0.0015 0.21569 -1.89 0 2.10082e-12 0 0 0 7.84538e-28
10233 342 0.0015 0.216379 -1.89 0 -5.75914e-12 0 0 0 3.45866e-27
10234 342 0.0015 0.217069 -1.89 0 9.05548e-12 0 0 0 8.09369e-27
10235 342 0.0015 0.217759 -1.89 0 -1.10481e-11 0 0 0 1.17063e-26
10236 342 0.0015 0.218448 -1.89 0 1.26051e-11 0 0 0 1.53447e-26
10237 342 0.0015 0.219138 -1.89 0 -1.52484e-11 0 0 0 2.24881e-26
10238 342 0.0015 0.219828 -1.89 0 1.6553e-11 0 0 0 2.6249e-26
10239 342 0.0015 0.220517 -1.89 0 -1.57204e-11 0 0 0 2.37093e-26
10240 342 0.0015 0.221207 -1.89 0 1.66615e-11 0 0 0 2.68306e-26
10241 342 0.0015 0.221897 -1.89 0 -1.82912e-11 0 0 0 3.20484e-26
10242 342 0.0015 0.222586 -1.89 0 1.57195e-11 0 0 0 2.43278e-26
10243 342 0.0015 0.223276 -1.89 0 -1.19527e-11 0 0 0 1.38111e-26
10244 342 0.0015 0.223966 -1.89 0 1.22427e-11 0 0 0 1.45543e-26
10245 342 0.0015 0.224655 -1.89 0 -1.67346e-11 0 0 0 2.77168e-26
10246 342 0.0015 0.225345 -1.89 0 1.67346e-11 0 0 0 2.77168e-26
10247 342 0.0015 0.226034 -1.89 0 -1.22427e-11 0 0 0 1.45543e-26
10248 342 0.0015 0.226724 -1.89 0 1.19527e-11 0 0 0 1.38111e-26
10249 342 0.0015 0.227414 -1.89 0 -1.57195e-11 0 0 0 2.43278e-26
10250 342 0.0015 0.228103 -1.89 0 1.82912e-11 0 0 0 3.20484e-26
10251 342 0.0015 0.228793 -1.89 0 -1.66615e-11 0 0 0 2.68306e-26
10252 342 0.0015 0.229483 -1.89 0 1.57204e-11 0 0 0 2.37093e-26
10253 342 0.0015 0.230172 -1.89 0 -1.6553e-11 0 0 0 2.6249e-26
10254 342 0.0015 0.230862 -1.89 0 1.52484e-11 0 0 0 2.24881e-26
10255 342 0.0015 0.231552 -1.89 0 -1.26051e-11 0 0 0 1.53447e-26
10256 342 0.0015 0.232241 -1.89 0 1.10481e-11 0 0 0 1.17063e-26
10257 342 0.0015 0.232931 -1.89 0 -9.05548e-12 0 0 0 8.09369e-27
10258 342 0.0015 0.233621 -1.89 0 5.75914e-12 0 0 0 3.45866e-27
10259 342 0.0015 0.23431 -1.89 0 -2.10082e-12 0 0 0 7.84538e-28
10260 342 0.0015 0.235 -1.89 0 7.86679e-14 0 0 0 1.18555e-30
6001 201 0.0015 0.490936 -1.89052 0 3.8122e-13 1.01204e-12 0 0 2.70699e-27
1474 50 0.0015 0.563543 -1.89178 0 -2.72468e-12 -1.42728e-12 0 0 2.32678e-26
3539 118 0.0015 0.640514 -1.89051 0 -2.18821e-13 -9.32316e-13 0 1.57149e-20 7.53922e-27
2643 89 0.0015 -0.578354 -1.8892 0 -1.83654e-12 3.52414e-13 0 0 2.43154e-27
6063 203 0.0015 -0.391043 -1.8889 0 -1.08379e-11 -5.00321e-12 0 0 3.21846e-26
6064 203 0.0015 -0.392859 -1.88804 0 1.75069e-11 7.8588e-13 0 0 6.69453e-26
6062 203 0.0015 -0.389226 -1.88976 0 2.14396e-12 1.02498e-11 0 0 3.52806e-27
10264 343 0.0015 0.419847 -1.88903 0 3.88755e-13 2.53807e-12 0 0 5.29593e-27
1475 50 0.0015 0.56577 -1.88887 0 -1.44093e-12 -4.16461e-12 0 0 9.24807e-27
3538 118 0.0015 0.643052 -1.8886 0 2.10119e-12 2.95331e-12 0 1.57149e-20 6.07501e-27
2644 89 0.0015 -0.582074 -1.88635 0 2.67094e-12 -1.99361e-12 0 0 1.17402e-26
6066 203 0.0015 -0.396492 -1.88631 0 1.19739e-11 9.65384e-12 0 0 1.91623e-26
6065 203 0.0015 -0.394676 -1.88717 0 -1.79703e-11 -5.96598e-12 0 0 5.34815e-26
7981 267 0.0015 -0.194876 -1.88635 0 -8.28824e-13 1.9116e-12 0 1.00459e-20 1.45519e-27
10326 345 0.0015 -0.0639033 -1.88773 0 -9.74266e-13 7.01942e-12 0 3.14298e-20 2.80918e-26
1953 66 0.0015 0.0146782 -1.88782 0 -1.25431e-12 1.39669e-11 0 5.20104e-21 1.406e-25
8043 269 0.0015 0.154095 -1.88717 0 -4.53697e-13 5.11303e-12 0 3.6872e-21 2.47919e-26
3537 118 0.0015 0.645589 -1.88668 0 3.57009e-12 9.8261e-13 0 1.57149e-20 1.88386e-26
6068 203 0.0015 -0.400126 -1.88459 0 3.40299e-12 -1.17828e-12 0 2.48474e-20 3.67953e-27
6067 203 0.0015 -0.398309 -1.88545 0 -5.88311e-12 -6.84898e-12 0 0 1.68104e-27
6033 202 0.0015 -0.323025 -1.88564 0 1.88745e-12 -3.16556e-12 0 5.48788e-21 1.75957e-26
7983 267 0.0015 -0.199527 -1.8846 0 -3.05847e-12 -6.24295e-13 0 2.00918e-20 5.30712e-27
7982 267 0.0015 -0.197202 -1.88548 0 3.08393e-12 -3.77629e-12 0 2.00918e-20 6.75081e-27
10327 345 0.0015 -0.0645802 -1.88463 0 1.33478e-13 -1.34178e-14 0 3.14298e-20 5.07895e-26
10265 343 0.0015 0.420568 -1.88507 0 -5.67417e-14 4.64353e-13 0 0 1.25259e-26
1476 50 0.0015 0.567996 -1.88596 0 -1.31989e-12 8.80138e-14 0 0 1.6984e-26
3536 118 0.0015 0.648126 -1.88476 0 -6.40876e-12 -3.46343e-12 0 0 2.43172e-26
2645 89 0.0015 -0.585795 -1.88349 0 -6.62902e-12 5.97691e-12 0 0 5.71831e-26
6071 203 0.0015 -0.405575 -1.882 0 -1.07353e-11 2.43779e-11 0 7.45423e-20 1.15542e-25
6070 203 0.0015 -0.403759 -1.88287 0 3.22827e-12 -2.653e-11 0 7.45423e-20 7.79123e-26
6069 203 0.0015 -0.401942 -1.88373 0 9.92974e-13 1.35472e-11 0 4.96948e-20 6.87958e-27
7985 267 0.0015 -0.204179 -1.88284 0 2.92668e-12 -4.42678e-12 0 1.00459e-20 6.39608e-27
7984 267 0.0015 -0.201853 -1.88372 0 -2.49071e-13 5.75156e-12 0 1.00459e-20 3.17035e-27
1954 66 0.0015 0.0141981 -1.88304 0 2.03761e-13 -3.15523e-12 0 5.20104e-21 4.02985e-26
6002 201 0.0015 0.493952 -1.88275 0 2.6014e-13 5.63848e-13 0 0 9.40594e-27
1477 50 0.0015 0.570222 -1.88304 0 8.25968e-13 4.55165e-13 0 0 1.63324e-26
3535 118 0.0015 0.650663 -1.88285 0 4.17475e-12 2.73056e-12 0 0 1.10205e-26
2646 89 0.0015 -0.589516 -1.88064 0 4.48867e-12 -4.21019e-12 0 0 4.566e-26
6073 203 0.0015 -0.409209 -1.88028 0 -2.18204e-12 -2.04762e-12 0 4.96948e-20 4.23681e-27
6072 203 0.0015 -0.407392 -1.88114 0 8.81068e-12 -7.31294e-12 0 7.45423e-20 4.53282e-26
7988 267 0.0015 -0.211156 -1.8802 0 1.00028e-11 -5.36066e-12 0 0 4.49083e-26
7987 267 0.0015 -0.208831 -1.88108 0 -2.67418e-12 1.51697e-14 0 1.00459e-20 1.85981e-26
7986 267 0.0015 -0.206505 -1.88196 0 -3.77689e-12 2.33888e-12 0 1.00459e-20 6.5657e-27
8011 268 0.0015 -0.176367 -1.88159 0 -1.93215e-13 -5.49534e-13 0 0 1.23758e-27
10328 345 0.0015 -0.065257 -1.88152 0 1.36663e-12 -9.86178e-12 0 1.57149e-20 4.37624e-26
8044 269 0.0015 0.1534 -1.88043 0 3.31938e-13 -3.81084e-12 0 7.37441e-21 1.5213e-26
10266 343 0.0015 0.421289 -1.88111 0 -4.91744e-13 -5.72806e-12 0 0 1.84724e-26
1478 50 0.0015 0.572449 -1.88013 0 3.37653e-12 3.29595e-12 0 6.81478e-21 1.11014e-26
3534 118 0.0015 0.653201 -1.88093 0 -3.10904e-12 -2.64755e-12 0 0 7.43425e-27
10292 344 0.0015 -0.465124 -1.8785 0 3.75312e-12 -1.27971e-12 0 1.68424e-20 7.67198e-27
10291 344 0.0015 -0.4623 -1.87941 0 -2.58768e-12 1.21154e-12 0 1.68424e-20 6.61906e-27
6074 203 0.0015 -0.411025 -1.87942 0 -3.70156e-12 -8.76603e-13 0 2.48474e-20 2.4901e-27
6075 203 0.0015 -0.412842 -1.87856 0 -2.34271e-12 3.35835e-12 0 0 1.66288e-26
7990 267 0.0015 -0.215808 -1.87844 0 -3.50725e-12 -5.7823e-12 0 1.00459e-20 1.79452e-27
7989 267 0.0015 -0.213482 -1.87932 0 -4.40575e-12 7.83093e-12 0 0 2.97187e-26
10329 345 0.0015 -0.0659339 -1.87841 0 6.83939e-13 1.27943e-12 0 0 2.92618e-26
1955 66 0.0015 0.0137179 -1.87827 0 3.25922e-13 -3.15163e-12 0 0 7.09516e-27
10201 341 0.0015 0.290108 -1.87875 0 9.54926e-15 2.34104e-14 0 0 9.21064e-31
3533 118 0.0015 0.655738 -1.87902 0 -1.1542e-12 -6.56708e-15 0 1.57149e-20 9.45532e-27
2647 89 0.0015 -0.593237 -1.87778 0 1.00851e-12 -8.58714e-13 0 0 3.10827e-27
10294 344 0.0015 -0.470773 -1.87669 0 -2.59602e-12 2.80558e-12 0 0 5.70544e-27
10293 344 0.0015 -0.467948 -1.87759 0 -7.35224e-13 -1.31951e-12 0 1.68424e-20 1.62617e-27
6077 203 0.0015 -0.416475 -1.87683 0 -1.08471e-11 -5.80938e-12 0 2.48474e-20 1.67133e-26
6076 203 0.0015 -0.414658 -1.87769 0 1.20259e-11 1.73023e-12 0 0 2.86414e-26
6034 202 0.0015 -0.327828 -1.87791 0 -2.1971e-12 3.66367e-12 0 2.74394e-21 2.30695e-26
7992 267 0.0015 -0.22046 -1.87668 0 -1.71916e-12 -9.20208e-13 0 3.01377e-20 2.86165e-27
7991 267 0.0015 -0.218134 -1.87756 0 4.72369e-12 2.58079e-12 0 2.00918e-20 4.28667e-27
10267 343 0.0015 0.42201 -1.87716 0 -4.40432e-13 1.53311e-12 0 0 1.4313e-26
1479 50 0.0015 0.574675 -1.87722 0 -1.58641e-12 1.47672e-13 0 1.36296e-20 7.55292e-27
3532 118 0.0015 0.658275 -1.8771 0 6.56248e-12 3.67526e-12 0 1.57149e-20 2.62731e-26
2648 89 0.0015 -0.596958 -1.87493 0 -2.01243e-13 8.8166e-13 0 0 3.95866e-27
10296 344 0.0015 -0.476421 -1.87487 0 -3.45014e-12 2.62694e-12 0 1.68424e-20 7.30845e-27
10295 344 0.0015 -0.473597 -1.87578 0 4.42684e-12 -2.71787e-12 0 0 1.04914e-26
6080 203 0.0015 -0.421925 -1.87425 0 5.82629e-12 -1.73434e-11 0 0 4.54436e-26
6079 203 0.0015 -0.420108 -1.87511 0 -5.84083e-12 1.62214e-11 0 2.48474e-20 4.19291e-26
6078 203 0.0015 -0.418291 -1.87597 0 8.1094e-12 -3.6245e-12 0 2.48474e-20 2.67222e-26
7995 267 0.0015 -0.227437 -1.87404 0 -1.34821e-12 -5.35254e-12 0 2.00918e-20 7.89466e-28
7994 267 0.0015 -0.225111 -1.87492 0 3.71063e-12 1.74039e-12 0 3.01377e-20 4.35888e-27
7993 267 0.0015 -0.222785 -1.8758 0 -3.06031e-12 7.61941e-13 0 3.01377e-20 4.55353e-27
10330 345 0.0015 -0.0666107 -1.87531 0 -2.55486e-12 8.567e-12 0 0 3.67744e-26
6003 201 0.0015 0.496967 -1.87498 0 -7.73786e-13 -1.86796e-12 0 0 6.93625e-27
1480 50 0.0015 0.576901 -1.87431 0 5.04891e-13 -9.27206e-13 0 2.04443e-20 3.22894e-27
3531 118 0.0015 0.660812 -1.87519 0 -4.35056e-12 -2.88538e-12 0 1.57149e-20 1.9904e-26
2649 89 0.0015 -0.600679 -1.87207 0 -1.46521e-12 1.44609e-13 0 0 1.13235e-27
10299 344 0.0015 -0.484893 -1.87215 0 -2.14987e-12 2.58023e-13 0 1.68424e-20 3.78456e-27
10298 344 0.0015 -0.482069 -1.87306 0 -1.62132e-13 1.20895e-12 0 3.36849e-20 2.11928e-28
10297 344 0.0015 -0.479245 -1.87396 0 1.43302e-12 -2.22471e-12 0 1.68424e-20 2.16089e-27
6082 203 0.0015 -0.425558 -1.87252 0 1.36599e-12 -7.43834e-12 0 2.48474e-20 3.93503e-26
6081 203 0.0015 -0.423741 -1.87338 0 -1.01688e-11 1.28107e-11 0 0 6.03296e-26
7997 267 0.0015 -0.232089 -1.87228 0 -1.90049e-12 -1.95722e-12 0 0 4.58683e-28
7996 267 0.0015 -0.229763 -1.87316 0 1.10346e-12 4.76667e-12 0 1.00459e-20 7.78705e-28
10331 345 0.0015 -0.0672875 -1.8722 0 2.05275e-12 -8.22606e-12 0 0 3.42405e-26
1956 66 0.0015 0.0132378 -1.87349 0 1.02558e-13 -6.32305e-13 0 0 6.41645e-27
8045 269 0.0015 0.152704 -1.87369 0 -1.32848e-13 1.5348e-12 0 7.37441e-21 3.25794e-27
10202 341 0.0015 0.289307 -1.87202 0 -2.30654e-13 1.79749e-12 0 0 6.3326e-27
4531 152 0.0015 0.366216 -1.8733 0 -2.85401e-13 1.87824e-12 0 0 8.74563e-27
10268 343 0.0015 0.422731 -1.8732 0 1.30559e-12 4.53634e-12 0 0 1.32224e-26
3530 118 0.0015 0.66335 -1.87327 0 -2.32376e-12 -5.26586e-13 0 0 6.4602e-27
10301 344 0.0015 -0.490541 -1.87033 0 -1.70161e-12 5.30366e-13 0 0 1.51491e-27
10300 344 0.0015 -0.487717 -1.87124 0 3.30032e-12 -8.03766e-13 0 1.68424e-20 5.06128e-27
6084 203 0.0015 -0.429191 -1.8708 0 -8.29808e-12 -1.3857e-11 0 2.48474e-20 1.15931e-26
6083 203 0.0015 -0.427374 -1.87166 0 1.07031e-11 5.7591e-12 0 2.48474e-20 1.4586e-26
6035 202 0.0015 -0.332631 -1.87017 0 2.61382e-12 -4.26367e-12 0 2.74394e-21 3.22853e-26
7999 267 0.0015 -0.23674 -1.87052 0 -8.52977e-12 -3.66953e-12 0 1.00459e-20 1.68312e-26
7998 267 0.0015 -0.234415 -1.8714 0 4.04861e-12 2.04721e-12 0 1.00459e-20 4.11195e-27
1481 50 0.0015 0.579128 -1.8714 0 -2.67168e-12 -3.54202e-12 0 1.36296e-20 1.29167e-26
3529 118 0.0015 0.665887 -1.87136 0 4.16485e-12 1.40289e-12 0 0 8.26044e-27
2650 89 0.0015 -0.6044 -1.86922 0 2.02423e-12 -7.74094e-13 0 0 3.81967e-27
10303 344 0.0015 -0.49619 -1.86852 0 -2.56495e-12 1.27894e-12 0 0 3.41138e-27
10302 344 0.0015 -0.493366 -1.86943 0 1.90425e-12 -1.28346e-12 0 0 2.53096e-27
6087 203 0.0015 -0.434641 -1.86821 0 6.70793e-13 1.48952e-11 0 0 1.61185e-26
6085 203 0.0015 -0.431008 -1.86994 0 8.58146e-12 2.06577e-11 0 0 3.94401e-27
6086 203 0.0015 -0.432824 -1.86908 0 -9.76575e-12 -1.8665e-11 0 0 9.66676e-28
8001 267 0.0015 -0.241392 -1.86876 0 4.47158e-13 -3.53223e-12 0 0 1.231e-27
8000 267 0.0015 -0.239066 -1.86964 0 5.14299e-12 4.89831e-12 0 1.00459e-20 1.42191e-26
8012 268 0.0015 -0.171924 -1.86923 0 9.87564e-13 2.7733e-12 0 0 2.15759e-26
10332 345 0.0015 -0.0679644 -1.86909 0 -1.19226e-13 6.71423e-13 0 0 1.30784e-26
1957 66 0.0015 0.0127576 -1.86871 0 -4.37532e-13 4.32943e-12 0 0 1.29372e-26
10269 343 0.0015 0.423451 -1.86924 0 -1.55793e-12 -7.57089e-12 0 0 3.50834e-26
1482 50 0.0015 0.581354 -1.86848 0 3.72457e-12 4.94488e-12 0 6.81478e-21 1.97128e-26
3528 118 0.0015 0.668424 -1.86944 0 2.31761e-12 2.80866e-12 0 0 2.45409e-26
2651 89 0.0015 -0.608121 -1.86636 0 -4.15102e-12 2.91087e-12 0 0 1.8693e-26
10305 344 0.0015 -0.501838 -1.8667 0 -1.4896e-12 -1.90031e-12 0 0 1.14599e-27
10304 344 0.0015 -0.499014 -1.86761 0 2.5072e-12 2.68837e-13 0 0 2.18876e-27
6089 203 0.0015 -0.438274 -1.86649 0 -4.1068e-12 6.00514e-12 0 0 1.28812e-26
6088 203 0.0015 -0.436457 -1.86735 0 5.51157e-12 -1.12115e-11 0 0 2.69786e-26
8004 267 0.0015 -0.248369 -1.86612 0 1.05485e-13 -8.58765e-12 0 1.00459e-20 8.89948e-27
8003 267 0.0015 -0.246044 -1.867 0 -7.78711e-12 6.61687e-12 0 1.00459e-20 3.41419e-26
8002 267 0.0015 -0.243718 -1.86788 0 5.4164e-12 -1.70389e-12 0 0 2.54745e-26
8046 269 0.0015 0.152008 -1.86695 0 1.94881e-13 -1.8495e-12 0 3.6872e-21 5.00329e-27
6004 201 0.0015 0.499982 -1.86721 0 -6.41597e-13 -1.70341e-12 0 0 1.08413e-26
3527 118 0.0015 0.670962 -1.86752 0 -9.03457e-12 -6.81235e-12 0 1.57149e-20 5.71819e-26
10307 344 0.0015 -0.507486 -1.86489 0 5.38492e-12 -4.45163e-12 0 0 2.19017e-26
10306 344 0.0015 -0.504662 -1.8658 0 -9.83616e-13 3.09864e-12 0 0 2.13643e-27
6090 203 0.0015 -0.440091 -1.86563 0 1.30909e-12 -1.56749e-12 0 0 1.92111e-27
8006 267 0.0015 -0.253021 -1.86436 0 -4.37407e-13 5.22998e-13 0 0 2.59875e-27
8005 267 0.0015 -0.250695 -1.86524 0 4.30431e-12 5.54779e-12 0 1.00459e-20 1.97505e-27
10333 345 0.0015 -0.0686412 -1.86599 0 -6.8325e-13 2.1635e-12 0 0 4.92342e-27
10203 341 0.0015 0.288506 -1.8653 0 4.22126e-13 -3.45122e-12 0 0 1.14096e-26
4532 152 0.0015 0.364868 -1.86469 0 6.57532e-13 -4.2695e-12 0 0 2.29373e-26
10270 343 0.0015 0.424172 -1.86529 0 1.47737e-12 8.08482e-12 0 0 3.86263e-26
1483 50 0.0015 0.58358 -1.86557 0 -6.69598e-13 7.6619e-13 0 0 1.69197e-26
3526 118 0.0015 0.673499 -1.86561 0 7.11487e-12 4.47586e-12 0 3.14298e-20 3.85875e-26
2652 89 0.0015 -0.611842 -1.86351 0 5.8846e-12 -4.45877e-12 0 0 3.57214e-26
10310 344 0.0015 -0.515959 -1.86217 0 -2.25526e-12 9.10755e-13 0 0 4.19967e-27
10309 344 0.0015 -0.513134 -1.86307 0 2.8344e-12 -2.31145e-12 0 0 8.62551e-27
10308 344 0.0015 -0.51031 -1.86398 0 -7.07393e-12 4.58633e-12 0 0 2.84411e-26
6036 202 0.0015 -0.337434 -1.86244 0 -1.86875e-12 3.00377e-12 0 0 2.18728e-26
8008 267 0.0015 -0.257673 -1.8626 0 4.18948e-12 1.83346e-12 0 0 4.18244e-27
8007 267 0.0015 -0.255347 -1.86348 0 -4.75147e-12 -3.31289e-12 0 0 4.18583e-27
10334 345 0.0015 -0.0693181 -1.86288 0 -3.22394e-13 2.64232e-12 0 0 5.75438e-27
1958 66 0.0015 0.0122775 -1.86393 0 8.01318e-13 -8.56842e-12 0 0 5.79351e-26
1484 50 0.0015 0.585807 -1.86266 0 -2.08922e-12 -4.9919e-12 0 0 1.42204e-26
3525 118 0.0015 0.676036 -1.86369 0 -7.11487e-12 -4.47586e-12 0 3.14298e-20 3.85875e-26
2653 89 0.0015 -0.615563 -1.86065 0 -5.60833e-12 4.10497e-12 0 0 3.21126e-26
10312 344 0.0015 -0.521607 -1.86035 0 -5.48321e-13 1.25766e-12 0 0 6.59475e-27
10311 344 0.0015 -0.518783 -1.86126 0 4.48936e-12 -1.2373e-12 0 0 8.92754e-27
8010 267 0.0015 -0.262324 -1.86085 0 1.34036e-12 -9.3536e-13 0 0 1.73433e-27
8009 267 0.0015 -0.259998 -1.86172 0 -2.51166e-12 7.77267e-13 0 0 2.48083e-27
8047 269 0.0015 0.151313 -1.86021 0 3.80413e-14 -4.88846e-13 0 0 1.32e-26
10271 343 0.0015 0.424893 -1.86133 0 -3.39624e-13 -2.70747e-12 0 0 1.4114e-26
3524 118 0.0015 0.678573 -1.86178 0 9.03457e-12 6.81235e-12 0 1.57149e-20 5.71819e-26
10314 344 0.0015 -0.527255 -1.85854 0 7.496e-12 -3.48994e-13 0 1.68424e-20 2.1886e-26
10313 344 0.0015 -0.524431 -1.85944 0 -5.90799e-12 -3.37506e-13 0 1.68424e-20 1.52008e-26
10335 345 0.0015 -0.0699949 -1.85978 0 1.29354e-13 -5.92287e-13 0 0 9.08457e-27
1959 66 0.0015 0.0117974 -1.85915 0 -9.36036e-13 1.02447e-11 0 5.20104e-21 7.29874e-26
4771 160 0.0015 0.0785585 -1.85825 0 -8.38943e-14 2.99402e-12 0 0 2.29292e-26
10204 341 0.0015 0.287705 -1.85857 0 -1.25236e-13 7.22292e-13 0 3.6872e-21 6.63841e-27
6005 201 0.0015 0.502997 -1.85945 0 1.21861e-12 3.18611e-12 0 5.99535e-21 1.43424e-26
1485 50 0.0015 0.588033 -1.85975 0 3.03097e-13 1.89634e-12 0 0 5.49007e-27
3523 118 0.0015 0.681111 -1.85986 0 -2.31761e-12 -2.80866e-12 0 0 2.45409e-26
2654 89 0.0015 -0.619284 -1.8578 0 4.32129e-12 -2.99299e-12 0 0 1.82661e-26
10316 344 0.0015 -0.532903 -1.85672 0 8.70007e-12 4.11446e-14 0 0 2.88322e-26
10315 344 0.0015 -0.530079 -1.85763 0 -8.30884e-12 2.31118e-13 0 1.68424e-20 2.723e-26
8013 268 0.0015 -0.167482 -1.85688 0 -1.08584e-12 -3.03149e-12 0 0 2.30278e-26
10336 345 0.0015 -0.0706718 -1.85667 0 4.84244e-13 -3.84727e-12 0 1.57149e-20 6.58665e-27
4533 152 0.0015 0.36352 -1.85607 0 -6.50787e-13 4.06114e-12 0 5.72705e-21 2.11362e-26
10272 343 0.0015 0.425614 -1.85738 0 -3.09106e-13 -5.76884e-13 0 0 6.46531e-28
1486 50 0.0015 0.59026 -1.85684 0 -3.03097e-13 -1.89634e-12 0 0 5.49007e-27
3522 118 0.0015 0.683648 -1.85795 0 -4.16485e-12 -1.40289e-12 0 0 8.26044e-27
3521 118 0.0015 0.686185 -1.85603 0 2.32376e-12 5.26586e-13 0 0 6.4602e-27
2655 89 0.0015 -0.623004 -1.85494 0 -2.40672e-12 1.64839e-12 0 0 7.29671e-27
10318 344 0.0015 -0.538552 -1.85491 0 3.85187e-12 6.65724e-14 0 0 6.10757e-27
10317 344 0.0015 -0.535727 -1.85581 0 -5.00823e-12 -1.83076e-13 0 0 1.13276e-26
6037 202 0.0015 -0.342237 -1.85471 0 4.86557e-13 -7.68588e-13 0 2.74394e-21 1.29179e-27
1960 66 0.0015 0.0113172 -1.85437 0 5.09533e-13 -5.76426e-12 0 5.20104e-21 2.6862e-26
3520 118 0.0015 0.688722 -1.85412 0 4.35056e-12 2.88538e-12 0 1.57149e-20 1.9904e-26
2656 89 0.0015 -0.626725 -1.85209 0 -2.21463e-12 1.63077e-12 0 0 1.54228e-26
10320 344 0.0015 -0.5442 -1.85309 0 2.74696e-12 -2.84872e-13 0 0 6.01757e-27
10319 344 0.0015 -0.541376 -1.854 0 -5.30494e-12 3.02761e-13 0 0 1.09266e-26
10337 345 0.0015 -0.0713486 -1.85356 0 3.56873e-13 1.56374e-12 0 1.57149e-20 3.43929e-27
8048 269 0.0015 0.150617 -1.85348 0 -6.25273e-13 6.1967e-12 0 0 4.03564e-26
10273 343 0.0015 0.426335 -1.85342 0 -8.28363e-13 -4.16832e-12 0 0 1.89989e-26
1487 50 0.0015 0.592486 -1.85392 0 2.08922e-12 4.9919e-12 0 0 1.42204e-26
3519 118 0.0015 0.69126 -1.8522 0 -6.56248e-12 -3.67526e-12 0 1.57149e-20 2.62731e-26
10338 345 0.0015 -0.0720254 -1.85046 0 -1.02944e-12 9.13458e-13 0 1.57149e-20 5.60029e-28
10205 341 0.0015 0.286904 -1.85184 0 -3.92609e-14 7.66053e-13 0 3.6872e-21 1.60026e-27
6006 201 0.0015 0.506013 -1.85168 0 -1.05811e-12 -2.88847e-12 0 5.99535e-21 1.12781e-26
1488 50 0.0015 0.594712 -1.85101 0 6.69598e-13 -7.6619e-13 0 0 1.69197e-26
3518 118 0.0015 0.693797 -1.85028 0 1.1542e-12 6.56708e-15 0 1.57149e-20 9.45532e-27
2657 89 0.0015 -0.630446 -1.84923 0 7.21713e-12 -5.28539e-12 0 5.32605e-21 5.51946e-26
1961 66 0.0015 0.0108371 -1.84959 0 -1.09462e-12 1.09495e-11 0 1.04021e-20 1.216e-25
4772 160 0.0015 0.0782973 -1.84905 0 1.93917e-13 -6.94655e-12 0 0 6.28891e-26
10274 343 0.0015 0.427056 -1.84946 0 1.86149e-12 6.97002e-12 0 0 2.94997e-26
1489 50 0.0015 0.596939 -1.8481 0 -3.72457e-12 -4.94488e-12 0 6.81478e-21 1.97128e-26
3517 118 0.0015 0.696334 -1.84837 0 3.10904e-12 2.64755e-12 0 0 7.43425e-27
2658 89 0.0015 -0.634167 -1.84638 0 -7.18391e-12 5.08345e-12 0 5.32605e-21 5.3908e-26
6038 202 0.0015 -0.34704 -1.84697 0 -1.48278e-12 2.38064e-12 0 2.74394e-21 1.68443e-26
10339 345 0.0015 -0.0727023 -1.84735 0 -3.63521e-13 3.60545e-12 0 1.57149e-20 1.629e-26
8049 269 0.0015 0.149922 -1.84674 0 3.79906e-13 -3.69827e-12 0 0 3.23582e-26
6541 219 0.0015 0.213251 -1.84656 0 8.18313e-14 -7.86742e-13 0 0 1.23473e-27
4534 152 0.0015 0.362172 -1.84745 0 2.97572e-13 -1.69971e-12 0 5.72705e-21 6.94705e-27
3516 118 0.0015 0.698871 -1.84645 0 -4.17475e-12 -2.73056e-12 0 0 1.10205e-26
8014 268 0.0015 -0.163039 -1.84452 0 -1.14808e-13 -3.34123e-13 0 0 8.04699e-27
10340 345 0.0015 -0.0733791 -1.84424 0 1.66558e-12 -7.44203e-12 0 1.57149e-20 2.60101e-26
1962 66 0.0015 0.010357 -1.84481 0 1.77074e-12 -1.72608e-11 0 1.04021e-20 2.02286e-25
10206 341 0.0015 0.286103 -1.84511 0 1.16097e-13 -1.19646e-12 0 3.6872e-21 3.45473e-27
10275 343 0.0015 0.427777 -1.84551 0 -1.7862e-12 -4.16327e-12 0 0 1.25467e-26
1490 50 0.0015 0.599165 -1.84519 0 2.67168e-12 3.54202e-12 0 1.36296e-20 1.29167e-26
3515 118 0.0015 0.701409 -1.84454 0 6.40876e-12 3.46343e-12 0 0 2.43172e-26
2659 89 0.0015 -0.637888 -1.84352 0 3.61502e-12 -2.28668e-12 0 5.32605e-21 1.49901e-26
6007 201 0.0015 0.509028 -1.84391 0 1.75872e-12 4.73217e-12 0 5.99535e-21 3.18858e-26
1491 50 0.0015 0.601391 -1.84228 0 -5.04891e-13 9.27206e-13 0 2.04443e-20 3.22894e-27
3514 118 0.0015 0.703946 -1.84262 0 -3.57009e-12 -9.8261e-13 0 1.57149e-20 1.88386e-26
2660 89 0.0015 -0.641609 -1.84066 0 -2.05752e-12 1.43007e-12 0 0 4.21177e-27
10341 345 0.0015 -0.074056 -1.84114 0 4.58097e-14 -4.55694e-13 0 3.14298e-20 2.30758e-26
1963 66 0.0015 0.00987681 -1.84004 0 -1.09748e-12 1.06353e-11 0 1.04021e-20 9.41797e-26
10276 343 0.0015 0.428498 -1.84155 0 1.7862e-12 4.16327e-12 0 0 1.25467e-26
3513 118 0.0015 0.706483 -1.84071 0 -2.10119e-12 -2.95331e-12 0 1.57149e-20 6.07501e-27
6039 202 0.0015 -0.351842 -1.83924 0 1.45865e-12 -2.36474e-12 0 2.74394e-21 1.68149e-26
10342 345 0.0015 -0.0747328 -1.83803 0 -9.76447e-13 4.26503e-12 0 1.57149e-20 1.32451e-26
4773 160 0.0015 0.0780361 -1.83985 0 -1.54359e-13 5.53484e-12 0 0 4.63642e-26
8050 269 0.0015 0.149226 -1.84 0 7.63915e-14 -1.01068e-12 0 0 1.00196e-27
6542 219 0.0015 0.21269 -1.83947 0 -1.10488e-13 6.89298e-13 0 0 1.25251e-27
10207 341 0.0015 0.285302 -1.83839 0 -5.02722e-13 4.45452e-12 0 0 2.19179e-26
4535 152 0.0015 0.360823 -1.83883 0 8.24243e-14 -6.62423e-13 0 5.72705e-21 1.18854e-27
1492 50 0.0015 0.603618 -1.83936 0 1.58641e-12 -1.47672e-13 0 1.36296e-20 7.55292e-27
3512 118 0.0015 0.70902 -1.83879 0 2.18821e-13 9.32316e-13 0 1.57149e-20 7.53922e-27
2661 89 0.0015 -0.64533 -1.83781 0 1.85627e-12 -1.72812e-12 0 0 4.27075e-27
10277 343 0.0015 0.429219 -1.8376 0 -1.86149e-12 -6.97002e-12 0 0 2.94997e-26
6008 201 0.0015 0.512043 -1.83614 0 -1.33447e-12 -3.46632e-12 0 5.99535e-21 2.486e-26
1493 50 0.0015 0.605844 -1.83645 0 -3.37653e-12 -3.29595e-12 0 6.81478e-21 1.11014e-26
3511 118 0.0015 0.711558 -1.83688 0 1.43058e-12 8.68095e-13 0 0 2.44755e-27
2662 89 0.0015 -0.649051 -1.83495 0 -1.0495e-12 1.22112e-12 0 0 1.79556e-27
10343 345 0.0015 -0.0754097 -1.83493 0 1.63795e-12 -7.7429e-12 0 1.57149e-20 4.82765e-26
1964 66 0.0015 0.00939668 -1.83526 0 1.54329e-13 -1.65884e-12 0 5.20104e-21 1.16977e-26
2663 89 0.0015 -0.652772 -1.8321 0 7.29132e-13 -8.61646e-13 0 0 7.9407e-28
10171 340 0.0015 -0.234195 -1.83312 0 -1.84583e-13 2.83559e-13 0 6.39056e-21 2.48241e-28
8015 268 0.0015 -0.158597 -1.83216 0 4.46009e-13 1.26339e-12 0 0 5.41708e-27
8051 269 0.0015 0.14853 -1.83326 0 7.44385e-14 -2.86774e-13 0 0 2.20305e-27
6543 219 0.0015 0.212128 -1.83239 0 -5.0326e-14 1.46174e-12 0 0 3.70387e-27
10278 343 0.0015 0.429939 -1.83364 0 8.28363e-13 4.16832e-12 0 0 1.89989e-26
1494 50 0.0015 0.60807 -1.83354 0 -8.25968e-13 -4.55165e-13 0 0 1.63324e-26
6040 202 0.0015 -0.356645 -1.83151 0 8.70186e-13 -1.34329e-12 0 0 8.37985e-27
10344 345 0.0015 -0.0760865 -1.83182 0 -4.12313e-12 2.0354e-11 0 0 2.06382e-25
1965 66 0.0015 0.00891654 -1.83048 0 9.03688e-14 -3.80517e-13 0 0 2.23364e-27
4774 160 0.0015 0.0777749 -1.83066 0 3.23587e-14 -1.10923e-12 0 0 6.97669e-27
10208 341 0.0015 0.284501 -1.83166 0 3.43421e-13 -3.42948e-12 0 0 1.86843e-26
4536 152 0.0015 0.359475 -1.83021 0 3.06425e-14 -1.00086e-13 0 5.72705e-21 2.74935e-27
1495 50 0.0015 0.610297 -1.83063 0 1.31989e-12 -8.80138e-14 0 0 1.6984e-26
2664 89 0.0015 -0.656493 -1.82924 0 1.04585e-12 -3.53744e-13 0 0 3.85615e-27
10345 345 0.0015 -0.0767633 -1.82871 0 3.4527e-12 -1.77194e-11 0 0 1.77516e-25
10279 343 0.0015 0.43066 -1.82968 0 3.09106e-13 5.76884e-13 0 0 6.46531e-28
6009 201 0.0015 0.515058 -1.82837 0 2.47447e-13 5.04463e-13 0 5.99535e-21 5.32116e-28
2665 89 0.0015 -0.660213 -1.82639 0 -3.52115e-12 1.88733e-12 0 0 1.04442e-26
10172 340 0.0015 -0.238704 -1.82673 0 -5.02606e-13 6.55759e-13 0 6.39056e-21 3.18893e-27
8052 269 0.0015 0.147835 -1.82652 0 -3.02958e-13 2.58978e-12 0 3.6872e-21 7.01714e-27
1496 50 0.0015 0.612523 -1.82772 0 1.44093e-12 4.16461e-12 0 0 9.24807e-27
10346 345 0.0015 -0.0774402 -1.82561 0 -1.24888e-12 5.38726e-12 0 1.57149e-20 1.98249e-26
1966 66 0.0015 0.0084364 -1.8257 0 5.25117e-13 -5.7413e-12 0 0 3.48762e-26
6544 219 0.0015 0.211567 -1.8253 0 1.06317e-13 -1.96302e-12 0 0 4.39466e-27
10209 341 0.0015 0.2837 -1.82493 0 4.16655e-13 -2.60456e-12 0 0 1.65136e-26
10280 343 0.0015 0.431381 -1.82573 0 3.39624e-13 2.70747e-12 0 0 1.4114e-26
1497 50 0.0015 0.614749 -1.8248 0 2.72468e-12 1.42728e-12 0 0 2.32678e-26
2666 89 0.0015 -0.663934 -1.82353 0 2.72681e-12 -1.20064e-12 0 5.32605e-21 7.4479e-27
6041 202 0.0015 -0.361448 -1.82377 0 -1.61636e-12 2.51873e-12 0 0 1.18153e-26
10347 345 0.0015 -0.078117 -1.8225 0 1.01086e-12 -6.29686e-13 0 3.14298e-20 6.74097e-28
2667 89 0.0015 -0.667655 -1.82068 0 -1.74726e-12 7.51451e-13 0 1.06521e-20 2.53142e-27
10173 340 0.0015 -0.243212 -1.82034 0 1.38924e-12 -1.92681e-12 0 6.39056e-21 6.12861e-27
1967 66 0.0015 0.00795626 -1.82092 0 -4.45385e-13 4.56764e-12 0 0 3.45233e-26
4775 160 0.0015 0.0775136 -1.82146 0 1.22365e-14 -4.9634e-13 0 2.71488e-21 5.73779e-28
4537 152 0.0015 0.358127 -1.82159 0 -7.49116e-14 4.09985e-13 0 5.72705e-21 1.92548e-27
10281 343 0.0015 0.432102 -1.82177 0 -1.47737e-12 -8.08482e-12 0 0 3.86263e-26
6010 201 0.0015 0.518074 -1.8206 0 -1.68055e-12 -4.37966e-12 0 1.19907e-20 4.90489e-26
1498 50 0.0015 0.616976 -1.82189 0 -5.45807e-12 -5.90685e-12 0 0 3.3094e-26
8016 268 0.0015 -0.154154 -1.81981 0 -3.65712e-13 -1.03601e-12 0 0 3.4973e-27
10348 345 0.0015 -0.0787939 -1.81939 0 -1.03447e-12 -1.46369e-12 0 4.71447e-20 1.20568e-27
8053 269 0.0015 0.147139 -1.81978 0 4.94985e-13 -4.62492e-12 0 3.6872e-21 2.17842e-26
6545 219 0.0015 0.211005 -1.81821 0 7.87063e-14 -5.73295e-13 0 0 3.4429e-27
10210 341 0.0015 0.282899 -1.8182 0 -7.0202e-13 4.74839e-12 0 0 2.27879e-26
1499 50 0.0015 0.619202 -1.81898 0 4.77874e-12 5.96663e-12 0 0 2.99034e-26
2668 89 0.0015 -0.671376 -1.81782 0 7.50497e-13 -4.35986e-13 0 1.06521e-20 2.32278e-27
6042 202 0.0015 -0.366251 -1.81604 0 1.93475e-12 -3.0312e-12 0 0 1.8254e-26
10349 345 0.0015 -0.0794707 -1.81629 0 1.52042e-12 -2.10876e-12 0 3.14298e-20 1.23447e-26
1968 66 0.0015 0.00747613 -1.81614 0 -2.07525e-13 2.51534e-12 0 0 5.89769e-27
10282 343 0.0015 0.432823 -1.81781 0 1.55793e-12 7.57089e-12 0 0 3.50834e-26
1500 50 0.0015 0.621428 -1.81607 0 -2.48883e-12 -3.26883e-12 0 0 1.71869e-26
2669 89 0.0015 -0.675097 -1.81497 0 -1.97065e-13 2.81248e-13 0 5.32605e-21 9.27535e-28
5941 199 0.0015 0.740778 -1.81551 0 4.95682e-14 2.34841e-13 0 0 1.53562e-28
2670 89 0.0015 -0.678818 -1.81211 0 5.45713e-13 -5.00273e-13 0 0 7.08596e-28
10174 340 0.0015 -0.24772 -1.81396 0 -2.50685e-13 3.84052e-13 0 0 4.42018e-27
10350 345 0.0015 -0.0801475 -1.81318 0 -1.07856e-12 3.40014e-12 0 1.57149e-20 1.11406e-26
4776 160 0.0015 0.0772524 -1.81226 0 -4.25826e-14 1.47866e-12 0 2.71488e-21 5.41985e-27
8054 269 0.0015 0.146443 -1.81304 0 -2.0619e-13 1.94993e-12 0 3.6872e-21 1.80924e-26
4538 152 0.0015 0.356779 -1.81297 0 2.78563e-13 -1.80811e-12 0 5.72705e-21 1.22617e-26
10283 343 0.0015 0.433544 -1.81386 0 -1.30559e-12 -4.53634e-12 0 0 1.32224e-26
6011 201 0.0015 0.521089 -1.81283 0 2.66412e-12 7.28059e-12 0 1.19907e-20 7.19824e-26
1969 66 0.0015 0.00699599 -1.81136 0 9.53247e-14 -2.12282e-12 0 0 5.60339e-27
6546 219 0.0015 0.210443 -1.81113 0 -1.81564e-14 -8.62595e-14 0 0 5.87574e-27
10211 341 0.0015 0.282098 -1.81148 0 4.33001e-13 -2.5672e-12 0 0 7.50927e-27
6043 202 0.0015 -0.371054 -1.8083 0 -1.66624e-12 2.61252e-12 0 0 1.59013e-26
10284 343 0.0015 0.434265 -1.8099 0 4.40432e-13 -1.53311e-12 0 0 1.4313e-26
10175 340 0.0015 -0.252228 -1.80757 0 -9.90242e-13 1.28641e-12 0 0 2.87111e-27
8017 268 0.0015 -0.149712 -1.80745 0 1.00371e-12 2.81387e-12 0 0 1.82718e-26
1970 66 0.0015 0.00651585 -1.80658 0 3.06124e-13 -1.41849e-12 0 5.20104e-21 3.07186e-27
8055 269 0.0015 0.145748 -1.8063 0 -6.06174e-13 5.87155e-12 0 0 4.74019e-26
5942 199 0.0015 0.743061 -1.80618 0 3.56627e-13 1.40648e-12 0 0 7.78185e-27
6547 219 0.0015 0.209882 -1.80404 0 -5.75206e-14 9.50595e-13 0 0 3.33009e-27
10212 341 0.0015 0.281297 -1.80475 0 -2.9027e-13 1.83321e-12 0 0 3.35731e-27
4539 152 0.0015 0.35543 -1.80435 0 -8.64603e-13 5.6466e-12 0 0 4.15222e-26