ITEM: TIMESTEP
49450
ITEM: NUMBER OF ATOMS
10500
ITEM: BOX BOUNDS pp pp pp
-1.0249999999999999e+00 1.0249999999999999e+00
-2.0000000000000000e+00 2.0000000000000000e+00
-5.0000000000000003e-02 5.0000000000000003e-02
ITEM: ATOMS id type radius x y z fx fy fz c_bendingE c_stretchingE
10321 345 0.0015 -0.0605191 -1.90326 0 -2.83129e-13 1.25401e-12 0 1.57149e-20 1.45945e-27
6031 202 0.0015 -0.31342 -1.90111 0 1.02709e-12 -1.66031e-12 0 0 9.63861e-27
10322 345 0.0015 -0.061196 -1.90016 0 6.58988e-14 3.80256e-13 0 1.57149e-20 3.84351e-27
8041 269 0.0015 0.155487 -1.90065 0 -1.8425e-13 1.80333e-12 0 0 6.1838e-27
10261 343 0.0015 0.417684 -1.90089 0 1.75157e-13 6.96374e-13 0 0 5.73455e-28
1471 50 0.0015 0.556864 -1.90052 0 2.74911e-13 -2.53472e-13 0 0 1.20444e-30
10323 345 0.0015 -0.0618728 -1.89705 0 2.41887e-13 -2.33394e-12 0 1.57149e-20 2.80314e-27
1951 66 0.0015 0.0156385 -1.89738 0 -1.69614e-13 1.7331e-12 0 0 4.0456e-27
10262 343 0.0015 0.418405 -1.89694 0 -8.11658e-17 9.91319e-13 0 0 3.77048e-27
1472 50 0.0015 0.559091 -1.8976 0 -1.32384e-12 -8.29245e-13 0 0 2.28372e-27
2641 89 0.0015 -0.570912 -1.89491 0 2.11395e-12 -1.66794e-12 0 0 9.44476e-27
1473 50 0.0015 0.561317 -1.89469 0 -3.80509e-13 4.42077e-13 0 0 4.21351e-27
2642 89 0.0015 -0.574633 -1.89206 0 -3.65181e-12 2.84782e-12 0 1.59781e-20 1.43397e-26
6032 202 0.0015 -0.318223 -1.89337 0 -6.98087e-13 1.14736e-12 0 0 1.05775e-26
10324 345 0.0015 -0.0625496 -1.89394 0 4.14952e-14 2.75797e-13 0 0 5.81019e-28
1952 66 0.0015 0.0151583 -1.8926 0 1.88368e-13 -2.06855e-12 0 0 4.19589e-27
8042 269 0.0015 0.154791 -1.89391 0 3.29143e-13 -3.29299e-12 0 0 1.03992e-26
10263 343 0.0015 0.419126 -1.89298 0 -7.97536e-13 -5.94209e-12 0 0 2.38228e-26
3540 118 0.0015 0.637977 -1.89243 0 -3.86701e-13 -2.72669e-13 0 0 1.97508e-28
6061 203 0.0015 -0.387409 -1.89062 0 7.81186e-13 1.58674e-12 0 2.48474e-20 3.66716e-31
10325 345 0.0015 -0.0632265 -1.89084 0 3.83427e-13 -1.63591e-12 0 2.35723e-20 4.08707e-27
10231 342 0.0015 0.215 -1.89 0 -1.12908e-12 0 0 0 2.44218e-28
10232 342 0.0015 0.21569 -1.89 0 4.5788e-19 0 0 0 4.88435e-28
10233 342 0.0015 0.216379 -1.89 0 3.94809e-12 0 0 0 1.7666e-27
10234 342 0.0015 0.217069 -1.89 0 -4.49141e-12 0 0 0 2.05819e-27
10235 342 0.0015 0.217759 -1.89 0 1.48506e-12 0 0 0 5.42527e-28
10236 342 0.0015 0.218448 -1.89 0 -3.64428e-14 0 0 0 1.62966e-29
10237 342 0.0015 0.219138 -1.89 0 1.44661e-13 0 0 0 1.07594e-29
10238 342 0.0015 0.219828 -1.89 0 1.59417e-12 0 0 0 4.40917e-28
10239 342 0.0015 0.220517 -1.89 0 -4.56363e-12 0 0 0 2.22041e-27
10240 342 0.0015 0.221207 -1.89 0 5.28827e-12 0 0 0 2.74145e-27
10241 342 0.0015 0.221897 -1.89 0 -3.94832e-12 0 0 0 1.52004e-27
10242 342 0.0015 0.222586 -1.89 0 5.14339e-12 0 0 0 2.81935e-27
10243 342 0.0015 0.223276 -1.89 0 -6.44779e-12 0 0 0 3.99871e-27
10244 342 0.0015 0.223966 -1.89 0 4.78162e-12 0 0 0 2.33784e-27
10245 342 0.0015 0.224655 -1.89 0 -3.69455e-12 0 0 0 1.30981e-27
10246 342 0.0015 0.225345 -1.89 0 3.69455e-12 0 0 0 1.30981e-27
10247 342 0.0015 0.226034 -1.89 0 -4.78162e-12 0 0 0 2.33784e-27
10248 342 0.0015 0.226724 -1.89 0 6.44779e-12 0 0 0 3.99871e-27
10249 342 0.0015 0.227414 -1.89 0 -5.14339e-12 0 0 0 2.81935e-27
10250 342 0.0015 0.228103 -1.89 0 3.94832e-12 0 0 0 1.52004e-27
10251 342 0.0015 0.228793 -1.89 0 -5.28827e-12 0 0 0 2.74145e-27
10252 342 0.0015 0.229483 -1.89 0 4.56363e-12 0 0 0 2.22041e-27
10253 342 0.0015 0.230172 -1.89 0 -1.59417e-12 0 0 0 4.40917e-28
10254 342 0.0015 0.230862 -1.89 0 -1.44661e-13 0 0 0 1.07594e-29
10255 342 0.0015 0.231552 -1.89 0 3.64428e-14 0 0 0 1.62966e-29
10256 342 0.0015 0.232241 -1.89 0 -1.48506e-12 0 0 0 5.42527e-28
10257 342 0.0015 0.232931 -1.89 0 4.49141e-12 0 0 0 2.05819e-27
10258 342 0.0015 0.233621 -1.89 0 -3.94809e-12 0 0 0 1.7666e-27
10259 342 0.0015 0.23431 -1.89 0 -4.5788e-19 0 0 0 4.88435e-28
10260 342 0.0015 0.235 -1.89 0 1.12908e-12 0 0 0 2.44218e-28
6001 201 0.0015 0.490936 -1.89052 0 2.29038e-13 5.16225e-13 0 0 7.36641e-28
1474 50 0.0015 0.563543 -1.89178 0 2.52937e-12 5.48537e-13 0 0 2.29135e-27
3539 118 0.0015 0.640514 -1.89051 0 -4.44177e-13 5.24541e-13 0 0 4.28417e-28
2643 89 0.0015 -0.578354 -1.8892 0 1.98487e-12 -1.31369e-12 0 2.13042e-20 5.1427e-27
6063 203 0.0015 -0.391043 -1.8889 0 7.94544e-12 -9.39024e-13 0 2.48474e-20 1.76699e-26
6064 203 0.0015 -0.392859 -1.88804 0 -5.74416e-12 3.18494e-12 0 0 1.25327e-26
6062 203 0.0015 -0.389226 -1.88976 0 -6.31171e-12 -1.59096e-12 0 2.48474e-20 1.3935e-26
10264 343 0.0015 0.419847 -1.88903 0 1.44261e-12 9.12055e-12 0 0 4.78232e-26
1475 50 0.0015 0.56577 -1.88887 0 -3.31445e-13 2.08208e-12 0 0 4.6295e-27
3538 118 0.0015 0.643052 -1.8886 0 1.47149e-12 -1.31133e-12 0 0 2.45168e-28
2644 89 0.0015 -0.582074 -1.88635 0 -2.79386e-13 -1.6695e-13 0 2.13042e-20 3.77891e-28
6066 203 0.0015 -0.396492 -1.88631 0 2.77472e-12 2.21388e-12 0 0 2.15841e-26
6065 203 0.0015 -0.394676 -1.88717 0 6.02403e-12 -4.8372e-12 0 0 1.58249e-26
7981 267 0.0015 -0.194876 -1.88635 0 5.94572e-14 -4.24541e-13 0 0 2.92499e-29
10326 345 0.0015 -0.0639033 -1.88773 0 2.11783e-13 -1.07858e-12 0 3.92872e-20 1.30087e-26
1953 66 0.0015 0.0146782 -1.88782 0 -3.73072e-13 3.96494e-12 0 0 1.78926e-26
8043 269 0.0015 0.154095 -1.88717 0 -5.20443e-13 5.23855e-12 0 0 3.09288e-26
3537 118 0.0015 0.645589 -1.88668 0 -9.04815e-13 1.19343e-12 0 0 2.92154e-29
6068 203 0.0015 -0.400126 -1.88459 0 1.76628e-11 -1.15816e-11 0 2.48474e-20 1.22833e-25
6067 203 0.0015 -0.398309 -1.88545 0 -1.559e-11 5.14937e-12 0 2.48474e-20 8.44593e-26
6033 202 0.0015 -0.323025 -1.88564 0 -1.39308e-12 2.22397e-12 0 0 1.12055e-26
7983 267 0.0015 -0.199527 -1.8846 0 1.41547e-12 -2.09416e-12 0 0 1.48793e-27
7982 267 0.0015 -0.197202 -1.88548 0 -7.74225e-13 1.75335e-12 0 0 9.24768e-28
10327 345 0.0015 -0.0645802 -1.88463 0 -2.07683e-12 1.0011e-11 0 3.92872e-20 5.2559e-26
10265 343 0.0015 0.420568 -1.88507 0 -1.57812e-12 -8.91116e-12 0 1.24237e-20 4.61158e-26
1476 50 0.0015 0.567996 -1.88596 0 -3.74491e-13 -1.91243e-12 0 0 4.36134e-27
3536 118 0.0015 0.648126 -1.88476 0 3.6644e-13 1.15958e-12 0 1.57149e-20 6.69621e-28
2645 89 0.0015 -0.585795 -1.88349 0 2.84353e-13 -7.36943e-14 0 5.32605e-21 5.78345e-28
6071 203 0.0015 -0.405575 -1.882 0 7.58201e-12 2.43438e-11 0 2.48474e-20 3.61907e-27
6070 203 0.0015 -0.403759 -1.88287 0 -7.25609e-13 -1.75206e-11 0 2.48474e-20 1.67434e-26
6069 203 0.0015 -0.401942 -1.88373 0 -9.91336e-12 1.40129e-11 0 2.48474e-20 6.81963e-26
7985 267 0.0015 -0.204179 -1.88284 0 2.29234e-12 2.63254e-12 0 0 1.50443e-27
7984 267 0.0015 -0.201853 -1.88372 0 -9.65181e-13 -6.2047e-13 0 0 6.3314e-28
1954 66 0.0015 0.0141981 -1.88304 0 6.82421e-13 -6.86632e-12 0 0 3.18637e-26
6002 201 0.0015 0.493952 -1.88275 0 -7.10439e-13 -1.66524e-12 0 0 4.32657e-27
1477 50 0.0015 0.570222 -1.88304 0 -6.01723e-13 -4.48851e-13 0 0 2.72781e-28
3535 118 0.0015 0.650663 -1.88285 0 2.35576e-12 -9.38898e-13 0 1.57149e-20 4.83383e-27
2646 89 0.0015 -0.589516 -1.88064 0 -6.89664e-13 6.14496e-13 0 0 5.9415e-28
6073 203 0.0015 -0.409209 -1.88028 0 1.93382e-12 1.10187e-11 0 2.48474e-20 3.29616e-27
6072 203 0.0015 -0.407392 -1.88114 0 -6.77087e-12 -2.43136e-11 0 2.48474e-20 5.21625e-27
7988 267 0.0015 -0.211156 -1.8802 0 -6.10054e-12 4.11512e-12 0 0 1.87855e-26
7987 267 0.0015 -0.208831 -1.88108 0 7.30123e-12 -3.56235e-12 0 0 2.28394e-26
7986 267 0.0015 -0.206505 -1.88196 0 -5.50201e-12 -1.77733e-13 0 0 1.05536e-26
8011 268 0.0015 -0.176367 -1.88159 0 2.95858e-13 8.27628e-13 0 0 2.81761e-27
10328 345 0.0015 -0.065257 -1.88152 0 2.71502e-12 -1.30003e-11 0 1.57149e-20 7.81246e-26
8044 269 0.0015 0.1534 -1.88043 0 5.26388e-13 -5.25392e-12 0 0 3.10189e-26
10266 343 0.0015 0.421289 -1.88111 0 1.12639e-12 5.87628e-12 0 1.24237e-20 2.28146e-26
1478 50 0.0015 0.572449 -1.88013 0 -3.10142e-13 -7.36858e-14 0 0 6.35016e-28
3534 118 0.0015 0.653201 -1.88093 0 -1.96524e-12 6.33518e-13 0 1.57149e-20 5.0424e-27
10292 344 0.0015 -0.465124 -1.8785 0 4.24472e-12 1.83274e-12 0 0 5.01265e-27
10291 344 0.0015 -0.4623 -1.87941 0 -2.01458e-12 -2.06713e-13 0 0 2.83463e-27
6074 203 0.0015 -0.411025 -1.87942 0 7.04774e-12 2.22289e-12 0 4.96948e-20 1.30097e-26
6075 203 0.0015 -0.412842 -1.87856 0 -1.09495e-11 -5.28355e-12 0 7.45423e-20 1.73017e-26
7990 267 0.0015 -0.215808 -1.87844 0 2.87425e-14 -1.48799e-12 0 0 5.27103e-28
7989 267 0.0015 -0.213482 -1.87932 0 2.7439e-12 -1.15716e-12 0 0 5.08838e-27
10329 345 0.0015 -0.0659339 -1.87841 0 -3.30439e-12 1.56744e-11 0 0 1.18679e-25
1955 66 0.0015 0.0137179 -1.87827 0 -3.73493e-13 3.79567e-12 0 0 1.45407e-26
10201 341 0.0015 0.290108 -1.87875 0 3.29793e-13 -3.0324e-12 0 0 1.75077e-26
3533 118 0.0015 0.655738 -1.87902 0 -5.09577e-12 -4.37259e-12 0 0 2.96846e-26
2647 89 0.0015 -0.593237 -1.87778 0 -1.16263e-13 -2.02906e-14 0 5.32605e-21 3.69901e-28
10294 344 0.0015 -0.470773 -1.87669 0 1.13217e-12 3.84835e-12 0 1.68424e-20 1.85555e-27
10293 344 0.0015 -0.467948 -1.87759 0 -3.98815e-12 -3.79492e-12 0 1.68424e-20 3.01903e-27
6077 203 0.0015 -0.416475 -1.87683 0 -2.19634e-12 -1.22092e-12 0 2.48474e-20 2.52986e-27
6076 203 0.0015 -0.414658 -1.87769 0 4.0049e-12 3.17486e-12 0 4.96948e-20 4.70469e-27
6034 202 0.0015 -0.327828 -1.87791 0 8.8106e-13 -1.42455e-12 0 0 1.05588e-26
7992 267 0.0015 -0.22046 -1.87668 0 1.85127e-12 1.5464e-12 0 0 6.25764e-28
7991 267 0.0015 -0.218134 -1.87756 0 -1.63935e-12 5.86848e-13 0 0 1.0491e-27
10267 343 0.0015 0.42201 -1.87716 0 -6.08097e-13 -2.51884e-12 0 1.24237e-20 4.47442e-27
1479 50 0.0015 0.574675 -1.87722 0 -1.64421e-13 2.09603e-15 0 0 1.05225e-27
3532 118 0.0015 0.658275 -1.8771 0 1.08788e-11 7.95167e-12 0 0 8.20073e-26
2648 89 0.0015 -0.596958 -1.87493 0 9.44097e-13 -6.4655e-13 0 5.32605e-21 9.14428e-28
10296 344 0.0015 -0.476421 -1.87487 0 -1.31744e-12 7.15126e-13 0 0 1.52411e-27
10295 344 0.0015 -0.473597 -1.87578 0 1.8805e-12 -2.20373e-12 0 1.68424e-20 2.52715e-27
6080 203 0.0015 -0.421925 -1.87425 0 5.73716e-12 4.41424e-12 0 0 3.27833e-27
6079 203 0.0015 -0.420108 -1.87511 0 -4.98962e-12 -7.77864e-12 0 0 7.64014e-28
6078 203 0.0015 -0.418291 -1.87597 0 4.24993e-12 4.17405e-12 0 0 2.33855e-27
7995 267 0.0015 -0.227437 -1.87404 0 2.34437e-12 -4.52315e-12 0 3.01377e-20 5.29383e-27
7994 267 0.0015 -0.225111 -1.87492 0 -2.87887e-12 2.76593e-12 0 2.00918e-20 5.06696e-27
7993 267 0.0015 -0.222785 -1.8758 0 2.98e-13 -2.08613e-12 0 1.00459e-20 1.19924e-27
10330 345 0.0015 -0.0666107 -1.87531 0 3.37883e-12 -1.66897e-11 0 0 1.30727e-25
6003 201 0.0015 0.496967 -1.87498 0 -2.87888e-13 -8.59554e-13 0 0 1.42982e-26
1480 50 0.0015 0.576901 -1.87431 0 1.91833e-12 5.25682e-13 0 0 1.27662e-27
3531 118 0.0015 0.660812 -1.87519 0 -7.04129e-12 -4.90008e-12 0 0 5.37675e-26
2649 89 0.0015 -0.600679 -1.87207 0 -1.94594e-12 1.48363e-12 0 5.32605e-21 4.54019e-27
10299 344 0.0015 -0.484893 -1.87215 0 5.96457e-12 -4.05616e-12 0 3.36849e-20 3.45611e-26
10298 344 0.0015 -0.482069 -1.87306 0 1.13374e-12 1.31057e-12 0 3.36849e-20 1.24055e-27
10297 344 0.0015 -0.479245 -1.87396 0 -1.2358e-12 -5.1299e-13 0 1.68424e-20 1.07819e-27
6082 203 0.0015 -0.425558 -1.87252 0 2.31035e-12 -6.77898e-12 0 0 7.35324e-27
6081 203 0.0015 -0.423741 -1.87338 0 -4.14419e-12 3.41934e-12 0 0 7.84047e-27
7997 267 0.0015 -0.232089 -1.87228 0 -4.04212e-12 -1.43113e-12 0 2.00918e-20 4.38573e-27
7996 267 0.0015 -0.229763 -1.87316 0 1.05302e-12 4.13154e-12 0 2.00918e-20 1.97772e-27
10331 345 0.0015 -0.0672875 -1.8722 0 -1.08556e-12 6.69099e-12 0 0 4.69212e-26
1956 66 0.0015 0.0132378 -1.87349 0 1.31553e-13 -1.58387e-12 0 5.20104e-21 1.83052e-27
8045 269 0.0015 0.152704 -1.87369 0 1.2997e-13 -1.20936e-12 0 0 1.83194e-26
10202 341 0.0015 0.289307 -1.87202 0 -2.67189e-13 3.03115e-12 0 0 1.75078e-26
4531 152 0.0015 0.366216 -1.8733 0 -1.4939e-13 9.22764e-13 0 0 2.11734e-27
10268 343 0.0015 0.422731 -1.8732 0 6.18884e-13 1.40378e-12 0 0 1.2449e-27
3530 118 0.0015 0.66335 -1.87327 0 -2.59892e-12 -2.91104e-12 0 0 1.95919e-26
10301 344 0.0015 -0.490541 -1.87033 0 1.64897e-12 -3.19123e-12 0 1.68424e-20 1.92e-26
10300 344 0.0015 -0.487717 -1.87124 0 -9.57319e-12 5.83827e-12 0 3.36849e-20 5.06314e-26
6084 203 0.0015 -0.429191 -1.8708 0 7.77753e-12 -3.37999e-12 0 2.48474e-20 2.68223e-26
6083 203 0.0015 -0.427374 -1.87166 0 -2.31974e-12 3.70164e-12 0 0 3.79148e-27
6035 202 0.0015 -0.332631 -1.87017 0 1.45678e-12 -2.36086e-12 0 2.74394e-21 1.52764e-26
7999 267 0.0015 -0.23674 -1.87052 0 -8.19595e-13 -4.33237e-12 0 3.01377e-20 1.51271e-27
7998 267 0.0015 -0.234415 -1.8714 0 3.90237e-12 2.03238e-12 0 2.00918e-20 4.02394e-27
1481 50 0.0015 0.579128 -1.8714 0 6.63626e-13 3.99463e-12 0 0 2.03285e-26
3529 118 0.0015 0.665887 -1.87136 0 5.37265e-12 5.55731e-12 0 0 2.69403e-26
2650 89 0.0015 -0.6044 -1.86922 0 3.93604e-12 -3.02288e-12 0 0 1.75591e-26
10303 344 0.0015 -0.49619 -1.86852 0 -2.36068e-12 1.51014e-12 0 0 3.33328e-27
10302 344 0.0015 -0.493366 -1.86943 0 3.83743e-12 -9.15605e-14 0 1.68424e-20 5.58859e-27
6087 203 0.0015 -0.434641 -1.86821 0 1.11643e-12 -8.64447e-12 0 2.48474e-20 1.02583e-26
6085 203 0.0015 -0.431008 -1.86994 0 -8.53073e-12 1.89038e-12 0 2.48474e-20 2.6907e-26
6086 203 0.0015 -0.432824 -1.86908 0 2.1959e-13 6.16043e-12 0 2.48474e-20 1.1993e-26
8001 267 0.0015 -0.241392 -1.86876 0 1.43999e-12 7.05853e-12 0 1.00459e-20 4.04503e-27
8000 267 0.0015 -0.239066 -1.86964 0 -2.37653e-12 4.82295e-13 0 2.00918e-20 2.01382e-27
8012 268 0.0015 -0.171924 -1.86923 0 -8.10307e-13 -2.26643e-12 0 0 1.13335e-26
10332 345 0.0015 -0.0679644 -1.86909 0 2.05723e-13 -2.28105e-12 0 0 7.02709e-27
1957 66 0.0015 0.0127576 -1.86871 0 3.92941e-14 -3.84506e-13 0 1.04021e-20 4.08255e-27
10269 343 0.0015 0.423451 -1.86924 0 -4.53552e-13 3.14101e-13 0 0 1.78449e-27
1482 50 0.0015 0.581354 -1.86848 0 -5.0346e-12 -8.48777e-12 0 0 4.94259e-26
3528 118 0.0015 0.668424 -1.86944 0 -5.88782e-12 -5.17418e-12 0 0 2.8447e-26
2651 89 0.0015 -0.608121 -1.86636 0 -5.32976e-12 3.99064e-12 0 5.32605e-21 2.88928e-26
10305 344 0.0015 -0.501838 -1.8667 0 -3.46177e-12 3.39099e-12 0 1.68424e-20 8.45948e-27
10304 344 0.0015 -0.499014 -1.86761 0 2.96828e-12 -3.02505e-12 0 0 7.29678e-27
6089 203 0.0015 -0.438274 -1.86649 0 8.39067e-13 -2.40275e-13 0 2.48474e-20 5.34304e-27
6088 203 0.0015 -0.436457 -1.86735 0 2.73903e-12 2.8305e-12 0 2.48474e-20 1.7545e-27
8004 267 0.0015 -0.248369 -1.86612 0 3.55514e-12 7.69913e-12 0 0 3.93679e-28
8003 267 0.0015 -0.246044 -1.867 0 -2.5519e-12 -2.35972e-12 0 0 1.99162e-27
8002 267 0.0015 -0.243718 -1.86788 0 1.60789e-12 -6.71389e-12 0 0 5.28086e-27
8046 269 0.0015 0.152008 -1.86695 0 -4.51627e-13 4.42875e-12 0 3.6872e-21 1.95998e-26
6004 201 0.0015 0.499982 -1.86721 0 1.42385e-12 3.76202e-12 0 0 1.88156e-26
3527 118 0.0015 0.670962 -1.86752 0 4.93894e-12 2.70243e-12 0 0 2.10137e-26
10307 344 0.0015 -0.507486 -1.86489 0 -5.17321e-13 -6.35324e-13 0 3.36849e-20 5.67135e-28
10306 344 0.0015 -0.504662 -1.8658 0 7.65663e-13 -1.16533e-12 0 1.68424e-20 2.00731e-27
6090 203 0.0015 -0.440091 -1.86563 0 -2.55996e-12 6.11115e-13 0 0 3.7028e-27
8006 267 0.0015 -0.253021 -1.86436 0 1.35976e-12 3.67691e-12 0 0 6.17837e-30
8005 267 0.0015 -0.250695 -1.86524 0 -3.12501e-12 -6.02193e-12 0 0 3.81894e-28
10333 345 0.0015 -0.0686412 -1.86599 0 -1.58337e-12 7.83014e-12 0 0 3.07934e-26
10203 341 0.0015 0.288506 -1.8653 0 -4.2392e-13 2.57015e-12 0 0 1.26592e-26
4532 152 0.0015 0.364868 -1.86469 0 4.62669e-13 -2.84736e-12 0 5.72705e-21 1.13304e-26
10270 343 0.0015 0.424172 -1.86529 0 -6.51023e-13 -5.65448e-12 0 0 2.5576e-26
1483 50 0.0015 0.58358 -1.86557 0 4.40282e-12 5.49844e-12 0 6.81478e-21 3.24964e-26
3526 118 0.0015 0.673499 -1.86561 0 1.49678e-12 3.31005e-12 0 0 1.41989e-26
2652 89 0.0015 -0.611842 -1.86351 0 4.26089e-12 -2.93338e-12 0 1.06521e-20 1.91836e-26
10310 344 0.0015 -0.515959 -1.86217 0 -5.32575e-12 1.5692e-12 0 0 1.27086e-26
10309 344 0.0015 -0.513134 -1.86307 0 4.6276e-12 -1.01711e-12 0 1.68424e-20 9.6043e-27
10308 344 0.0015 -0.51031 -1.86398 0 -8.4987e-13 1.03777e-12 0 1.68424e-20 3.22191e-27
6036 202 0.0015 -0.337434 -1.86244 0 -1.43071e-12 2.36533e-12 0 5.48788e-21 1.52595e-26
8008 267 0.0015 -0.257673 -1.8626 0 -9.56932e-13 -1.71296e-12 0 0 1.17427e-28
8007 267 0.0015 -0.255347 -1.86348 0 -1.77922e-13 -1.82025e-12 0 0 1.1367e-28
10334 345 0.0015 -0.0693181 -1.86288 0 1.28362e-12 -6.42908e-12 0 0 2.55824e-26
1958 66 0.0015 0.0122775 -1.86393 0 -4.48402e-13 4.89631e-12 0 1.56031e-20 1.90294e-26
1484 50 0.0015 0.585807 -1.86266 0 -9.80799e-13 -6.7667e-13 0 6.81478e-21 2.97597e-27
3525 118 0.0015 0.676036 -1.86369 0 -1.49678e-12 -3.31005e-12 0 0 1.41989e-26
2653 89 0.0015 -0.615563 -1.86065 0 -1.55824e-12 6.04357e-13 0 1.59781e-20 4.02884e-27
10312 344 0.0015 -0.521607 -1.86035 0 -2.85342e-12 2.37219e-12 0 0 8.38875e-27
10311 344 0.0015 -0.518783 -1.86126 0 5.15883e-12 -3.08922e-12 0 0 1.42353e-26
8010 267 0.0015 -0.262324 -1.86085 0 1.32729e-12 -2.2465e-12 0 0 2.86374e-27
8009 267 0.0015 -0.259998 -1.86172 0 -6.70049e-13 4.29147e-12 0 0 2.87189e-27
8047 269 0.0015 0.151313 -1.86021 0 1.27736e-13 -1.46502e-12 0 3.6872e-21 5.70575e-27
10271 343 0.0015 0.424893 -1.86133 0 1.53484e-12 8.73615e-12 0 1.24237e-20 4.40736e-26
3524 118 0.0015 0.678573 -1.86178 0 -4.93894e-12 -2.70243e-12 0 0 2.10137e-26
10314 344 0.0015 -0.527255 -1.85854 0 -3.65014e-12 3.14922e-13 0 1.68424e-20 7.15761e-27
10313 344 0.0015 -0.524431 -1.85944 0 9.57834e-13 -2.0203e-13 0 1.68424e-20 4.73647e-28
10335 345 0.0015 -0.0699949 -1.85978 0 4.77247e-13 -8.2846e-13 0 0 6.07905e-27
1959 66 0.0015 0.0117974 -1.85915 0 5.25269e-13 -5.63853e-12 0 1.04021e-20 2.25895e-26
4771 160 0.0015 0.0785585 -1.85825 0 -4.58391e-14 1.52321e-12 0 0 5.93541e-27
10204 341 0.0015 0.287705 -1.85857 0 5.22026e-13 -3.61477e-12 0 0 1.47637e-26
6005 201 0.0015 0.502997 -1.85945 0 8.36543e-14 2.98413e-14 0 5.99535e-21 1.67257e-26
1485 50 0.0015 0.588033 -1.85975 0 -1.55336e-12 -1.5041e-12 0 6.81478e-21 2.98484e-27
3523 118 0.0015 0.681111 -1.85986 0 5.88782e-12 5.17418e-12 0 0 2.8447e-26
2654 89 0.0015 -0.619284 -1.8578 0 -8.31187e-13 1.03759e-12 0 1.59781e-20 1.73047e-27
10316 344 0.0015 -0.532903 -1.85672 0 -6.69539e-12 2.59213e-12 0 0 2.13946e-26
10315 344 0.0015 -0.530079 -1.85763 0 5.87484e-12 -1.55892e-12 0 1.68424e-20 1.52307e-26
8013 268 0.0015 -0.167482 -1.85688 0 6.55263e-13 1.83534e-12 0 0 9.16174e-27
10336 345 0.0015 -0.0706718 -1.85667 0 -1.79478e-12 6.83839e-12 0 0 2.49157e-26
4533 152 0.0015 0.36352 -1.85607 0 -5.64743e-13 3.47536e-12 0 5.72705e-21 1.51937e-26
10272 343 0.0015 0.425614 -1.85738 0 -5.09212e-13 -2.01318e-12 0 1.24237e-20 2.46293e-26
1486 50 0.0015 0.59026 -1.85684 0 1.55336e-12 1.5041e-12 0 6.81478e-21 2.98484e-27
3522 118 0.0015 0.683648 -1.85795 0 -5.37265e-12 -5.55731e-12 0 0 2.69403e-26
3521 118 0.0015 0.686185 -1.85603 0 2.59892e-12 2.91104e-12 0 0 1.95919e-26
2655 89 0.0015 -0.623004 -1.85494 0 4.93274e-13 -2.57474e-13 0 1.59781e-20 2.16288e-27
10318 344 0.0015 -0.538552 -1.85491 0 3.59339e-12 3.23331e-12 0 0 6.71038e-27
10317 344 0.0015 -0.535727 -1.85581 0 3.4919e-12 -3.35816e-12 0 0 1.30328e-26
6037 202 0.0015 -0.342237 -1.85471 0 -7.78517e-13 1.20501e-12 0 5.48788e-21 8.14734e-27
1960 66 0.0015 0.0113172 -1.85437 0 -1.24643e-14 5.68846e-13 0 5.20104e-21 9.62106e-27
3520 118 0.0015 0.688722 -1.85412 0 7.04129e-12 4.90008e-12 0 0 5.37675e-26
2656 89 0.0015 -0.626725 -1.85209 0 2.05129e-12 -1.88657e-12 0 1.06521e-20 6.65831e-27
10320 344 0.0015 -0.5442 -1.85309 0 1.05442e-12 7.90737e-13 0 0 4.78423e-28
10319 344 0.0015 -0.541376 -1.854 0 -4.49135e-12 -2.24799e-12 0 0 7.06066e-27
10337 345 0.0015 -0.0713486 -1.85356 0 6.74497e-13 -3.46356e-12 0 0 2.18806e-26
8048 269 0.0015 0.150617 -1.85348 0 7.14535e-14 -3.57975e-13 0 3.6872e-21 1.43113e-28
10273 343 0.0015 0.426335 -1.85342 0 -1.18048e-12 -6.75391e-12 0 1.24237e-20 3.00848e-26
1487 50 0.0015 0.592486 -1.85392 0 9.80799e-13 6.7667e-13 0 6.81478e-21 2.97597e-27
3519 118 0.0015 0.69126 -1.8522 0 -1.08788e-11 -7.95167e-12 0 0 8.20073e-26
10338 345 0.0015 -0.0720254 -1.85046 0 1.27772e-12 -2.75312e-12 0 1.57149e-20 3.94389e-27
10205 341 0.0015 0.286904 -1.85184 0 -1.36401e-13 6.98901e-13 0 0 2.33179e-27
6006 201 0.0015 0.506013 -1.85168 0 -1.11728e-12 -2.64906e-12 0 5.99535e-21 1.06823e-26
1488 50 0.0015 0.594712 -1.85101 0 -4.40282e-12 -5.49844e-12 0 6.81478e-21 3.24964e-26
3518 118 0.0015 0.693797 -1.85028 0 5.09577e-12 4.37259e-12 0 0 2.96846e-26
2657 89 0.0015 -0.630446 -1.84923 0 -2.91489e-12 2.30805e-12 0 5.32605e-21 9.27331e-27
1961 66 0.0015 0.0108371 -1.84959 0 -2.42239e-13 1.64969e-12 0 5.20104e-21 3.39649e-27
4772 160 0.0015 0.0782973 -1.84905 0 6.82759e-14 -2.18002e-12 0 0 7.03922e-27
10274 343 0.0015 0.427056 -1.84946 0 1.96561e-12 9.74226e-12 0 1.24237e-20 5.52678e-26
1489 50 0.0015 0.596939 -1.8481 0 5.0346e-12 8.48777e-12 0 0 4.94259e-26
3517 118 0.0015 0.696334 -1.84837 0 1.96524e-12 -6.33518e-13 0 1.57149e-20 5.0424e-27
2658 89 0.0015 -0.634167 -1.84638 0 1.83882e-12 -9.62432e-13 0 0 3.4124e-27
6038 202 0.0015 -0.34704 -1.84697 0 1.48014e-12 -2.36713e-12 0 2.74394e-21 1.05415e-26
10339 345 0.0015 -0.0727023 -1.84735 0 -8.30634e-13 -5.11576e-13 0 1.57149e-20 6.03563e-27
8049 269 0.0015 0.149922 -1.84674 0 9.02086e-14 -1.14211e-12 0 0 2.99333e-27
6541 219 0.0015 0.213251 -1.84656 0 -9.27e-14 1.19654e-12 0 3.51396e-21 2.84412e-27
4534 152 0.0015 0.362172 -1.84745 0 3.71997e-13 -2.36283e-12 0 5.72705e-21 7.61365e-27
3516 118 0.0015 0.698871 -1.84645 0 -2.35576e-12 9.38898e-13 0 1.57149e-20 4.83383e-27
8014 268 0.0015 -0.163039 -1.84452 0 -3.96834e-13 -1.11327e-12 0 0 2.7586e-27
10340 345 0.0015 -0.0733791 -1.84424 0 -8.94591e-13 6.52024e-12 0 3.14298e-20 2.18912e-26
1962 66 0.0015 0.010357 -1.84481 0 -3.236e-13 3.85408e-12 0 1.04021e-20 2.07049e-26
10206 341 0.0015 0.286103 -1.84511 0 -1.9348e-13 1.70502e-12 0 0 3.75165e-27
10275 343 0.0015 0.427777 -1.84551 0 -2.53381e-12 -1.18303e-11 0 2.48474e-20 8.32807e-26
1490 50 0.0015 0.599165 -1.84519 0 -6.63626e-13 -3.99463e-12 0 0 2.03285e-26
3515 118 0.0015 0.701409 -1.84454 0 -3.6644e-13 -1.15958e-12 0 1.57149e-20 6.69621e-28
2659 89 0.0015 -0.637888 -1.84352 0 -1.16022e-12 7.56845e-14 0 0 6.10125e-28
6007 201 0.0015 0.509028 -1.84391 0 5.28246e-13 1.12841e-12 0 5.99535e-21 2.27064e-27
1491 50 0.0015 0.601391 -1.84228 0 -1.91833e-12 -5.25682e-13 0 0 1.27662e-27
3514 118 0.0015 0.703946 -1.84262 0 9.04815e-13 -1.19343e-12 0 0 2.92154e-29
2660 89 0.0015 -0.641609 -1.84066 0 -5.3521e-14 4.93717e-13 0 5.32605e-21 1.11047e-27
10341 345 0.0015 -0.074056 -1.84114 0 2.07018e-12 -9.65879e-12 0 3.14298e-20 4.33406e-26
1963 66 0.0015 0.00987681 -1.84004 0 2.70088e-13 -2.67141e-12 0 1.04021e-20 2.27953e-26
10276 343 0.0015 0.428498 -1.84155 0 2.53381e-12 1.18303e-11 0 2.48474e-20 8.32807e-26
3513 118 0.0015 0.706483 -1.84071 0 -1.47149e-12 1.31133e-12 0 0 2.45168e-28
6039 202 0.0015 -0.351842 -1.83924 0 -1.2602e-12 1.99136e-12 0 0 7.13658e-27
10342 345 0.0015 -0.0747328 -1.83803 0 -7.85278e-13 3.6738e-12 0 4.71447e-20 2.71502e-26
4773 160 0.0015 0.0780361 -1.83985 0 -1.49874e-14 2.85944e-13 0 2.71488e-21 1.45546e-27
8050 269 0.0015 0.149226 -1.84 0 -5.18377e-13 5.10844e-12 0 3.6872e-21 3.12769e-26
6542 219 0.0015 0.21269 -1.83947 0 3.98478e-14 -6.36188e-13 0 3.51396e-21 3.46954e-27
10207 341 0.0015 0.285302 -1.83839 0 5.10374e-13 -3.97948e-12 0 0 1.66741e-26
4535 152 0.0015 0.360823 -1.83883 0 1.28815e-13 -6.96654e-13 0 0 7.29904e-27
1492 50 0.0015 0.603618 -1.83936 0 1.64421e-13 -2.09603e-15 0 0 1.05225e-27
3512 118 0.0015 0.70902 -1.83879 0 4.44177e-13 -5.24541e-13 0 0 4.28417e-28
2661 89 0.0015 -0.64533 -1.83781 0 2.62538e-12 -1.62588e-12 0 5.32605e-21 7.5573e-27
10277 343 0.0015 0.429219 -1.8376 0 -1.96561e-12 -9.74226e-12 0 1.24237e-20 5.52678e-26
6008 201 0.0015 0.512043 -1.83614 0 -1.26261e-12 -3.04745e-12 0 0 2.10254e-26
1493 50 0.0015 0.605844 -1.83645 0 3.10142e-13 7.36858e-14 0 0 6.35016e-28
3511 118 0.0015 0.711558 -1.83688 0 3.86701e-13 2.72669e-13 0 0 1.97508e-28
2662 89 0.0015 -0.649051 -1.83495 0 -4.44907e-12 2.44726e-12 0 5.32605e-21 1.65606e-26
10343 345 0.0015 -0.0754097 -1.83493 0 -4.53878e-13 1.87688e-12 0 3.14298e-20 2.27693e-27
1964 66 0.0015 0.00939668 -1.83526 0 3.84527e-13 -4.23838e-12 0 5.20104e-21 1.41189e-26
2663 89 0.0015 -0.652772 -1.8321 0 3.51914e-12 -2.02694e-12 0 5.32605e-21 1.19665e-26
10171 340 0.0015 -0.234195 -1.83312 0 2.93773e-13 -4.04972e-13 0 0 5.43469e-28
8015 268 0.0015 -0.158597 -1.83216 0 8.43541e-13 2.35884e-12 0 0 1.3207e-26
8051 269 0.0015 0.14853 -1.83326 0 6.68889e-13 -6.31626e-12 0 3.6872e-21 3.98176e-26
6543 219 0.0015 0.212128 -1.83239 0 1.68894e-13 -1.83095e-12 0 3.51396e-21 3.83945e-27
10278 343 0.0015 0.429939 -1.83364 0 1.18048e-12 6.75391e-12 0 1.24237e-20 3.00848e-26
1494 50 0.0015 0.60807 -1.83354 0 6.01723e-13 4.48851e-13 0 0 2.72781e-28
6040 202 0.0015 -0.356645 -1.83151 0 1.25314e-12 -1.9483e-12 0 0 6.93127e-27
10344 345 0.0015 -0.0760865 -1.83182 0 -1.60618e-13 -3.23497e-13 0 1.57149e-20 1.25609e-28
1965 66 0.0015 0.00891654 -1.83048 0 -4.82253e-13 4.89601e-12 0 0 1.6929e-26
4774 160 0.0015 0.0777749 -1.83066 0 1.05281e-14 -1.36012e-13 0 5.42976e-21 1.00908e-27
10208 341 0.0015 0.284501 -1.83166 0 -3.10429e-13 2.26734e-12 0 0 1.33871e-26
4536 152 0.0015 0.359475 -1.83021 0 -5.74905e-13 3.55873e-12 0 0 1.61064e-26
1495 50 0.0015 0.610297 -1.83063 0 3.74491e-13 1.91243e-12 0 0 4.36134e-27
2664 89 0.0015 -0.656493 -1.82924 0 -9.63312e-13 1.27795e-12 0 5.32605e-21 2.21774e-27
10345 345 0.0015 -0.0767633 -1.82871 0 -1.85549e-13 2.91744e-12 0 0 7.82513e-27
10279 343 0.0015 0.43066 -1.82968 0 5.09212e-13 2.01318e-12 0 1.24237e-20 2.46293e-26
6009 201 0.0015 0.515058 -1.82837 0 1.50401e-12 3.86416e-12 0 5.99535e-21 2.3867e-26
2665 89 0.0015 -0.660213 -1.82639 0 -2.68495e-13 -1.3847e-12 0 5.32605e-21 2.65127e-28
10172 340 0.0015 -0.238704 -1.82673 0 -8.43679e-13 1.16228e-12 0 0 2.44527e-27
8052 269 0.0015 0.147835 -1.82652 0 -2.25466e-13 1.91607e-12 0 3.6872e-21 1.2068e-26
1496 50 0.0015 0.612523 -1.82772 0 3.31445e-13 -2.08208e-12 0 0 4.6295e-27
10346 345 0.0015 -0.0774402 -1.82561 0 6.57155e-13 -4.1167e-12 0 1.57149e-20 9.06235e-27
1966 66 0.0015 0.0084364 -1.8257 0 4.42937e-13 -3.87412e-12 0 0 1.01435e-26
6544 219 0.0015 0.211567 -1.8253 0 -8.1183e-14 6.64085e-13 0 0 3.94247e-27
10209 341 0.0015 0.2837 -1.82493 0 -2.70386e-13 2.21908e-12 0 0 6.89054e-27
10280 343 0.0015 0.431381 -1.82573 0 -1.53484e-12 -8.73615e-12 0 1.24237e-20 4.40736e-26
1497 50 0.0015 0.614749 -1.8248 0 -2.52937e-12 -5.48537e-13 0 0 2.29135e-27
2666 89 0.0015 -0.663934 -1.82353 0 1.17536e-12 3.57168e-13 0 0 1.6945e-27
6041 202 0.0015 -0.361448 -1.82377 0 -6.03755e-13 9.02529e-13 0 0 2.48848e-27
10347 345 0.0015 -0.078117 -1.8225 0 -3.42077e-13 1.10987e-12 0 1.57149e-20 1.24444e-27
2667 89 0.0015 -0.667655 -1.82068 0 -4.40177e-13 3.5348e-13 0 0 1.86744e-27
10173 340 0.0015 -0.243212 -1.82034 0 9.89224e-13 -1.41448e-12 0 0 3.2579e-27
1967 66 0.0015 0.00795626 -1.82092 0 -3.64011e-13 2.77192e-12 0 0 6.1187e-27
4775 160 0.0015 0.0775136 -1.82146 0 -2.65275e-14 7.87221e-13 0 5.42976e-21 8.58505e-28
4537 152 0.0015 0.358127 -1.82159 0 2.90273e-13 -1.85121e-12 0 5.72705e-21 1.05392e-26
10281 343 0.0015 0.432102 -1.82177 0 6.51023e-13 5.65448e-12 0 0 2.5576e-26
6010 201 0.0015 0.518074 -1.8206 0 2.65519e-13 4.24496e-13 0 1.19907e-20 9.26909e-27
1498 50 0.0015 0.616976 -1.82189 0 3.80509e-13 -4.42077e-13 0 0 4.21351e-27
8016 268 0.0015 -0.154154 -1.81981 0 -7.5588e-13 -2.12224e-12 0 0 1.20384e-26
10348 345 0.0015 -0.0787939 -1.81939 0 -4.20071e-13 2.16032e-12 0 1.57149e-20 4.16203e-27
8053 269 0.0015 0.147139 -1.81978 0 -3.10051e-14 4.27027e-13 0 0 5.82495e-28
6545 219 0.0015 0.211005 -1.81821 0 -2.27893e-13 3.04305e-12 0 0 1.25251e-26
10210 341 0.0015 0.282899 -1.8182 0 1.1447e-13 -6.45123e-13 0 0 9.48218e-27
1499 50 0.0015 0.619202 -1.81898 0 1.32384e-12 8.29245e-13 0 0 2.28372e-27
2668 89 0.0015 -0.671376 -1.81782 0 -2.44724e-12 9.66462e-13 0 0 5.63087e-27
6042 202 0.0015 -0.366251 -1.81604 0 4.23862e-13 -6.18366e-13 0 0 1.09548e-27
10349 345 0.0015 -0.0794707 -1.81629 0 6.85508e-13 -2.44034e-12 0 0 4.27546e-27
1968 66 0.0015 0.00747613 -1.81614 0 2.04099e-13 -1.34086e-12 0 0 1.27331e-27
10282 343 0.0015 0.432823 -1.81781 0 4.53552e-13 -3.14101e-13 0 0 1.78449e-27
1500 50 0.0015 0.621428 -1.81607 0 -2.74911e-13 2.53472e-13 0 0 1.20444e-30
2669 89 0.0015 -0.675097 -1.81497 0 2.73015e-12 -1.23072e-12 0 0 6.3423e-27
5941 199 0.0015 0.740778 -1.81551 0 7.18598e-14 2.44286e-13 0 2.60052e-21 1.72639e-28
2670 89 0.0015 -0.678818 -1.81211 0 -8.58428e-13 3.61779e-13 0 0 1.05826e-27
10174 340 0.0015 -0.24772 -1.81396 0 -9.62056e-14 3.14159e-13 0 0 1.85247e-27
10350 345 0.0015 -0.0801475 -1.81318 0 -1.69232e-13 3.31145e-13 0 0 1.14196e-28
4776 160 0.0015 0.0772524 -1.81226 0 -2.51467e-14 8.28678e-13 0 2.71488e-21 3.34754e-27
8054 269 0.0015 0.146443 -1.81304 0 3.39796e-14 -3.06934e-13 0 3.6872e-21 3.65223e-28
4538 152 0.0015 0.356779 -1.81297 0 3.32659e-13 -1.9817e-12 0 1.14541e-20 8.01479e-27
10283 343 0.0015 0.433544 -1.81386 0 -6.18884e-13 -1.40378e-12 0 0 1.2449e-27
6011 201 0.0015 0.521089 -1.81283 0 -1.15339e-12 -2.62016e-12 0 1.19907e-20 9.66963e-27
1969 66 0.0015 0.00699599 -1.81136 0 -2.98204e-13 2.80614e-12 0 0 7.33017e-27
6546 219 0.0015 0.210443 -1.81113 0 2.11995e-13 -2.57956e-12 0 0 1.18376e-26
10211 341 0.0015 0.282098 -1.81148 0 2.0601e-13 -1.98352e-12 0 3.6872e-21 3.9387e-27
6043 202 0.0015 -0.371054 -1.8083 0 -9.77106e-13 1.52057e-12 0 0 4.45281e-27
10284 343 0.0015 0.434265 -1.8099 0 6.08097e-13 2.51884e-12 0 1.24237e-20 4.47442e-27
10175 340 0.0015 -0.252228 -1.80757 0 -1.47284e-13 -1.16927e-13 0 0 1.01497e-27
8017 268 0.0015 -0.149712 -1.80745 0 -2.29424e-14 -4.01432e-14 0 0 2.06488e-27
1970 66 0.0015 0.00651585 -1.80658 0 9.97101e-13 -1.03998e-11 0 0 9.5921e-26
8055 269 0.0015 0.145748 -1.8063 0 -1.45715e-13 1.36273e-12 0 7.37441e-21 2.02232e-27
5942 199 0.0015 0.743061 -1.80618 0 2.41392e-14 2.24994e-13 0 2.60052e-21 7.83976e-28
6547 219 0.0015 0.209882 -1.80404 0 -2.45838e-14 2.43142e-13 0 0 6.08363e-29
10212 341 0.0015 0.281297 -1.80475 0 -1.84241e-13 1.75578e-12 0 3.6872e-21 2.98165e-27