ITEM: TIMESTEP
30530
ITEM: NUMBER OF ATOMS
10500
ITEM: BOX BOUNDS pp pp pp
-1.0249999999999999e+00 1.0249999999999999e+00
-2.0000000000000000e+00 2.0000000000000000e+00
-5.0000000000000003e-02 5.0000000000000003e-02
ITEM: ATOMS id type radius x y z fx fy fz c_bendingE c_stretchingE
10321 345 0.0015 -0.0605191 -1.90326 0 6.0042e-14 -3.31079e-13 0 0 9.98609e-29
6031 202 0.0015 -0.31342 -1.90111 0 1.7664e-13 -2.74272e-13 0 0 2.69058e-28
10322 345 0.0015 -0.061196 -1.90016 0 8.86396e-14 -1.62684e-14 0 1.57149e-20 2.21424e-28
8041 269 0.0015 0.155487 -1.90065 0 2.59642e-13 -2.57919e-12 0 0 1.26455e-26
10261 343 0.0015 0.417684 -1.90089 0 4.81497e-13 3.04151e-12 0 0 1.05868e-26
1471 50 0.0015 0.556864 -1.90052 0 -1.52723e-13 -5.94953e-13 0 0 3.25515e-28
10323 345 0.0015 -0.0618728 -1.89705 0 3.38238e-13 -2.7104e-12 0 3.14298e-20 8.56052e-27
1951 66 0.0015 0.0156385 -1.89738 0 2.99529e-14 -3.04251e-13 0 0 1.24698e-28
10262 343 0.0015 0.418405 -1.89694 0 -9.07388e-13 -6.32638e-12 0 1.24237e-20 2.28104e-26
1472 50 0.0015 0.559091 -1.8976 0 -7.79768e-13 -3.45993e-13 0 0 2.0832e-27
2641 89 0.0015 -0.570912 -1.89491 0 9.13302e-13 -7.67347e-13 0 0 1.85021e-27
1473 50 0.0015 0.561317 -1.89469 0 7.51205e-13 1.22953e-12 0 0 1.77214e-27
2642 89 0.0015 -0.574633 -1.89206 0 -1.41166e-12 1.16994e-12 0 0 2.38461e-27
6032 202 0.0015 -0.318223 -1.89337 0 -2.597e-13 3.93274e-13 0 0 3.22163e-28
10324 345 0.0015 -0.0625496 -1.89394 0 -2.35659e-13 2.89297e-12 0 3.14298e-20 8.47958e-27
1952 66 0.0015 0.0151583 -1.8926 0 -2.90964e-13 2.91075e-12 0 0 9.27949e-27
8042 269 0.0015 0.154791 -1.89391 0 -1.4383e-13 1.58325e-12 0 0 1.45371e-26
10263 343 0.0015 0.419126 -1.89298 0 6.62768e-13 5.64798e-12 0 1.24237e-20 1.84837e-26
3540 118 0.0015 0.637977 -1.89243 0 3.04689e-12 2.34475e-12 0 0 1.30523e-26
6061 203 0.0015 -0.387409 -1.89062 0 4.78773e-12 -1.64261e-12 0 0 1.41292e-26
10325 345 0.0015 -0.0632265 -1.89084 0 -7.93785e-13 1.95513e-12 0 1.57149e-20 3.11156e-27
10231 342 0.0015 0.215 -1.89 0 2.471e-13 0 0 0 1.1718e-29
10232 342 0.0015 0.21569 -1.89 0 -1.73861e-12 0 0 0 4.3776e-28
10233 342 0.0015 0.216379 -1.89 0 2.57236e-12 0 0 0 6.49658e-28
10234 342 0.0015 0.217069 -1.89 0 -1.73905e-12 0 0 0 3.06611e-28
10235 342 0.0015 0.217759 -1.89 0 9.41747e-13 0 0 0 9.83963e-29
10236 342 0.0015 0.218448 -1.89 0 -1.62995e-12 0 0 0 3.62682e-28
10237 342 0.0015 0.219138 -1.89 0 4.05676e-12 0 0 0 1.75456e-27
10238 342 0.0015 0.219828 -1.89 0 -4.56363e-12 0 0 0 2.06541e-27
10239 342 0.0015 0.220517 -1.89 0 2.20904e-12 0 0 0 6.8241e-28
10240 342 0.0015 0.221207 -1.89 0 -1.3764e-12 0 0 0 2.23749e-28
10241 342 0.0015 0.221897 -1.89 0 2.82546e-12 0 0 0 8.23495e-28
10242 342 0.0015 0.222586 -1.89 0 -4.27386e-12 0 0 0 1.79207e-27
10243 342 0.0015 0.223276 -1.89 0 4.16498e-12 0 0 0 1.71919e-27
10244 342 0.0015 0.223966 -1.89 0 -3.11479e-12 0 0 0 9.36799e-28
10245 342 0.0015 0.224655 -1.89 0 3.04257e-12 0 0 0 8.90726e-28
10246 342 0.0015 0.225345 -1.89 0 -3.04257e-12 0 0 0 8.90726e-28
10247 342 0.0015 0.226034 -1.89 0 3.11479e-12 0 0 0 9.36799e-28
10248 342 0.0015 0.226724 -1.89 0 -4.16498e-12 0 0 0 1.71919e-27
10249 342 0.0015 0.227414 -1.89 0 4.27386e-12 0 0 0 1.79207e-27
10250 342 0.0015 0.228103 -1.89 0 -2.82546e-12 0 0 0 8.23495e-28
10251 342 0.0015 0.228793 -1.89 0 1.3764e-12 0 0 0 2.23749e-28
10252 342 0.0015 0.229483 -1.89 0 -2.20904e-12 0 0 0 6.8241e-28
10253 342 0.0015 0.230172 -1.89 0 4.56363e-12 0 0 0 2.06541e-27
10254 342 0.0015 0.230862 -1.89 0 -4.05676e-12 0 0 0 1.75456e-27
10255 342 0.0015 0.231552 -1.89 0 1.62995e-12 0 0 0 3.62682e-28
10256 342 0.0015 0.232241 -1.89 0 -9.41747e-13 0 0 0 9.83963e-29
10257 342 0.0015 0.232931 -1.89 0 1.73905e-12 0 0 0 3.06611e-28
10258 342 0.0015 0.233621 -1.89 0 -2.57236e-12 0 0 0 6.49658e-28
10259 342 0.0015 0.23431 -1.89 0 1.73861e-12 0 0 0 4.3776e-28
10260 342 0.0015 0.235 -1.89 0 -2.471e-13 0 0 0 1.1718e-29
6001 201 0.0015 0.490936 -1.89052 0 -5.26285e-13 -1.31508e-12 0 0 4.64385e-27
1474 50 0.0015 0.563543 -1.89178 0 1.08664e-12 8.58981e-14 0 6.81478e-21 7.45578e-28
3539 118 0.0015 0.640514 -1.89051 0 -4.74609e-12 -3.39739e-12 0 0 1.65509e-26
2643 89 0.0015 -0.578354 -1.8892 0 1.63117e-12 -1.10261e-12 0 0 2.82116e-27
6063 203 0.0015 -0.391043 -1.8889 0 3.6632e-12 -3.70711e-12 0 0 7.47327e-27
6064 203 0.0015 -0.392859 -1.88804 0 -1.51512e-12 -1.71515e-12 0 0 2.00315e-27
6062 203 0.0015 -0.389226 -1.88976 0 -7.42774e-12 3.73165e-12 0 0 2.01403e-26
10264 343 0.0015 0.419847 -1.88903 0 -2.61211e-13 -3.22943e-12 0 1.24237e-20 7.07976e-27
1475 50 0.0015 0.56577 -1.88887 0 5.19215e-13 1.97491e-12 0 6.81478e-21 8.32899e-27
3538 118 0.0015 0.643052 -1.8886 0 1.77345e-12 6.81639e-13 0 0 3.52235e-27
2644 89 0.0015 -0.582074 -1.88635 0 -2.75212e-13 -2.14306e-13 0 5.32605e-21 4.28022e-27
6066 203 0.0015 -0.396492 -1.88631 0 5.38432e-12 -7.74762e-12 0 2.48474e-20 1.87782e-26
6065 203 0.0015 -0.394676 -1.88717 0 -9.82129e-13 9.20216e-12 0 0 8.80878e-27
7981 267 0.0015 -0.194876 -1.88635 0 1.64074e-13 1.31864e-12 0 0 6.76659e-29
10326 345 0.0015 -0.0639033 -1.88773 0 1.98388e-13 2.09559e-13 0 2.35723e-20 6.70057e-27
1953 66 0.0015 0.0146782 -1.88782 0 5.69354e-13 -5.69978e-12 0 5.20104e-21 2.2047e-26
8043 269 0.0015 0.154095 -1.88717 0 -3.50992e-13 3.16435e-12 0 3.6872e-21 1.08441e-26
3537 118 0.0015 0.645589 -1.88668 0 1.68083e-12 1.78833e-12 0 0 4.51328e-27
6068 203 0.0015 -0.400126 -1.88459 0 1.02156e-11 4.49576e-12 0 2.48474e-20 1.65165e-26
6067 203 0.0015 -0.398309 -1.88545 0 -1.00233e-11 3.25607e-13 0 2.48474e-20 2.36877e-26
6033 202 0.0015 -0.323025 -1.88564 0 -5.9497e-14 1.02342e-13 0 0 2.28349e-28
7983 267 0.0015 -0.199527 -1.8846 0 1.30794e-12 2.31875e-12 0 1.00459e-20 6.75651e-29
7982 267 0.0015 -0.197202 -1.88548 0 -1.20345e-12 -3.23973e-12 0 0 1.26796e-28
10327 345 0.0015 -0.0645802 -1.88463 0 1.42044e-12 -7.4199e-12 0 2.35723e-20 3.05857e-26
10265 343 0.0015 0.420568 -1.88507 0 2.92693e-13 2.25487e-12 0 0 3.05368e-27
1476 50 0.0015 0.567996 -1.88596 0 -1.55627e-12 -2.49158e-12 0 6.81478e-21 7.63578e-27
3536 118 0.0015 0.648126 -1.88476 0 -4.49345e-12 -3.43394e-12 0 0 1.47014e-26
2645 89 0.0015 -0.585795 -1.88349 0 -3.379e-12 3.21212e-12 0 5.32605e-21 1.70468e-26
6071 203 0.0015 -0.405575 -1.882 0 2.45155e-12 -1.23266e-11 0 0 1.63611e-26
6070 203 0.0015 -0.403759 -1.88287 0 2.32971e-12 1.11082e-11 0 0 5.02456e-27
6069 203 0.0015 -0.401942 -1.88373 0 -6.63123e-12 -7.51415e-12 0 0 3.39828e-27
7985 267 0.0015 -0.204179 -1.88284 0 -5.0166e-13 -1.0641e-12 0 1.00459e-20 2.20408e-28
7984 267 0.0015 -0.201853 -1.88372 0 -2.88824e-13 5.39079e-13 0 1.00459e-20 9.32174e-29
1954 66 0.0015 0.0141981 -1.88304 0 -4.93518e-13 4.94504e-12 0 5.20104e-21 1.75128e-26
6002 201 0.0015 0.493952 -1.88275 0 8.76856e-13 2.18849e-12 0 0 6.69388e-27
1477 50 0.0015 0.570222 -1.88304 0 -1.77353e-12 -2.35606e-12 0 0 1.00887e-26
3535 118 0.0015 0.650663 -1.88285 0 3.11226e-12 2.40896e-12 0 1.57149e-20 1.04645e-26
2646 89 0.0015 -0.589516 -1.88064 0 3.2697e-12 -3.26899e-12 0 1.06521e-20 1.68825e-26
6073 203 0.0015 -0.409209 -1.88028 0 -5.60957e-12 -1.73876e-12 0 2.48474e-20 5.35359e-27
6072 203 0.0015 -0.407392 -1.88114 0 1.05568e-12 6.90803e-12 0 2.48474e-20 1.49132e-26
7988 267 0.0015 -0.211156 -1.8802 0 -1.673e-12 -7.68987e-13 0 0 7.69022e-28
7987 267 0.0015 -0.208831 -1.88108 0 7.68025e-13 9.39196e-13 0 0 9.93929e-28
7986 267 0.0015 -0.206505 -1.88196 0 9.22297e-13 -6.03102e-13 0 0 4.12294e-28
8011 268 0.0015 -0.176367 -1.88159 0 -9.68483e-14 -2.76131e-13 0 1.90242e-21 3.12306e-28
10328 345 0.0015 -0.065257 -1.88152 0 -1.42964e-12 8.04684e-12 0 2.35723e-20 3.31194e-26
8044 269 0.0015 0.1534 -1.88043 0 5.08468e-13 -4.74851e-12 0 7.37441e-21 2.16205e-26
10266 343 0.0015 0.421289 -1.88111 0 -3.44961e-13 -1.02633e-12 0 1.24237e-20 2.36507e-27
1478 50 0.0015 0.572449 -1.88013 0 3.43313e-12 4.3962e-12 0 0 1.60918e-26
3534 118 0.0015 0.653201 -1.88093 0 5.46435e-13 2.7198e-13 0 1.57149e-20 1.38977e-27
10292 344 0.0015 -0.465124 -1.8785 0 5.70408e-12 -3.22009e-12 0 0 1.71416e-26
10291 344 0.0015 -0.4623 -1.87941 0 -2.62736e-12 1.21713e-12 0 0 6.80472e-27
6074 203 0.0015 -0.411025 -1.87942 0 1.03684e-12 2.63675e-12 0 2.48474e-20 4.08491e-27
6075 203 0.0015 -0.412842 -1.87856 0 6.31924e-13 -2.70674e-12 0 0 2.29128e-27
7990 267 0.0015 -0.215808 -1.87844 0 -4.93451e-13 -3.71907e-12 0 0 4.36614e-28
7989 267 0.0015 -0.213482 -1.87932 0 3.3448e-13 2.35124e-12 0 0 4.85775e-28
10329 345 0.0015 -0.0659339 -1.87841 0 -2.23544e-13 -1.38466e-12 0 0 7.74075e-27
1955 66 0.0015 0.0137179 -1.87827 0 5.32622e-13 -5.28821e-12 0 5.20104e-21 2.05367e-26
10201 341 0.0015 0.290108 -1.87875 0 -8.41159e-14 7.19059e-13 0 0 9.86328e-28
3533 118 0.0015 0.655738 -1.87902 0 -1.15672e-12 -1.30949e-12 0 1.57149e-20 1.43162e-27
2647 89 0.0015 -0.593237 -1.87778 0 -7.36593e-13 1.16823e-12 0 5.32605e-21 1.84504e-27
10294 344 0.0015 -0.470773 -1.87669 0 2.02751e-12 -2.90504e-12 0 0 3.68512e-27
10293 344 0.0015 -0.467948 -1.87759 0 -4.53172e-12 3.715e-12 0 0 1.33397e-26
6077 203 0.0015 -0.416475 -1.87683 0 -2.36835e-13 5.26324e-12 0 0 4.00625e-27
6076 203 0.0015 -0.414658 -1.87769 0 -2.1409e-14 -2.19548e-13 0 0 6.48807e-29
6034 202 0.0015 -0.327828 -1.87791 0 2.30293e-13 -3.41281e-13 0 0 2.30764e-28
7992 267 0.0015 -0.22046 -1.87668 0 -1.18967e-12 -1.72625e-13 0 0 4.19791e-28
7991 267 0.0015 -0.218134 -1.87756 0 1.34703e-12 2.71641e-12 0 0 9.23164e-29
10267 343 0.0015 0.42201 -1.87716 0 -8.51334e-14 -1.74574e-12 0 1.24237e-20 2.28966e-27
1479 50 0.0015 0.574675 -1.87722 0 -6.04279e-13 -9.98603e-13 0 0 7.69728e-27
3532 118 0.0015 0.658275 -1.8771 0 2.05563e-12 2.62021e-12 0 0 6.45832e-27
2648 89 0.0015 -0.596958 -1.87493 0 -5.30976e-13 2.01537e-13 0 5.32605e-21 5.74229e-28
10296 344 0.0015 -0.476421 -1.87487 0 4.47356e-12 -1.93661e-12 0 1.68424e-20 9.81643e-27
10295 344 0.0015 -0.473597 -1.87578 0 -2.49293e-12 2.26648e-12 0 0 4.51516e-27
6080 203 0.0015 -0.421925 -1.87425 0 2.64558e-12 -3.51687e-12 0 0 5.46485e-27
6079 203 0.0015 -0.420108 -1.87511 0 -6.09219e-12 7.57445e-12 0 0 2.35146e-26
6078 203 0.0015 -0.418291 -1.87597 0 4.7885e-12 -9.56614e-12 0 0 2.24888e-26
7995 267 0.0015 -0.227437 -1.87404 0 -3.4952e-12 -1.33527e-12 0 1.00459e-20 3.14239e-27
7994 267 0.0015 -0.225111 -1.87492 0 3.39241e-12 1.65631e-12 0 0 2.9313e-27
7993 267 0.0015 -0.222785 -1.8758 0 -5.27385e-13 -1.58522e-12 0 0 5.98843e-28
10330 345 0.0015 -0.0666107 -1.87531 0 3.08399e-13 9.92622e-13 0 1.57149e-20 6.01131e-27
6003 201 0.0015 0.496967 -1.87498 0 -2.31597e-13 -6.11702e-13 0 0 2.24073e-27
1480 50 0.0015 0.576901 -1.87431 0 -3.19125e-12 -3.3768e-12 0 0 1.3052e-26
3531 118 0.0015 0.660812 -1.87519 0 -2.99697e-12 -2.78134e-12 0 0 7.95905e-27
2649 89 0.0015 -0.600679 -1.87207 0 1.16197e-12 -1.03575e-12 0 0 1.60834e-27
10299 344 0.0015 -0.484893 -1.87215 0 3.87854e-12 -3.82241e-14 0 1.68424e-20 6.13118e-27
10298 344 0.0015 -0.482069 -1.87306 0 -1.92668e-12 -3.27132e-13 0 3.36849e-20 5.0645e-27
10297 344 0.0015 -0.479245 -1.87396 0 -3.09573e-12 1.32039e-12 0 1.68424e-20 6.33872e-27
6082 203 0.0015 -0.425558 -1.87252 0 6.91586e-12 -1.10836e-12 0 0 1.35265e-26
6081 203 0.0015 -0.423741 -1.87338 0 -2.66301e-12 2.23851e-12 0 0 3.8424e-27
7997 267 0.0015 -0.232089 -1.87228 0 5.83785e-13 -2.58953e-13 0 1.00459e-20 1.86994e-28
7996 267 0.0015 -0.229763 -1.87316 0 7.49939e-13 1.04702e-12 0 1.00459e-20 6.54231e-28
10331 345 0.0015 -0.0672875 -1.8722 0 5.88759e-13 -3.63818e-12 0 1.57149e-20 6.26352e-27
1956 66 0.0015 0.0132378 -1.87349 0 -4.34741e-13 4.32987e-12 0 0 1.69912e-26
8045 269 0.0015 0.152704 -1.87369 0 -5.41112e-13 5.20374e-12 0 7.37441e-21 2.57569e-26
10202 341 0.0015 0.289307 -1.87202 0 1.4345e-13 -1.31817e-12 0 0 1.66819e-27
4531 152 0.0015 0.366216 -1.8733 0 8.85667e-14 -5.90996e-13 0 0 8.65334e-28
10268 343 0.0015 0.422731 -1.8732 0 1.77017e-13 1.29133e-12 0 1.24237e-20 2.16717e-27
3530 118 0.0015 0.66335 -1.87327 0 -1.69227e-12 -2.03132e-12 0 0 1.59268e-26
10301 344 0.0015 -0.490541 -1.87033 0 -2.80353e-12 5.90487e-13 0 0 3.48842e-27
10300 344 0.0015 -0.487717 -1.87124 0 2.15812e-13 -6.53463e-13 0 1.68424e-20 3.85653e-27
6084 203 0.0015 -0.429191 -1.8708 0 1.29608e-11 -2.05201e-12 0 2.48474e-20 4.42616e-26
6083 203 0.0015 -0.427374 -1.87166 0 -1.1527e-11 4.16711e-13 0 2.48474e-20 3.25343e-26
6035 202 0.0015 -0.332631 -1.87017 0 -4.82604e-13 7.64181e-13 0 0 1.49934e-27
7999 267 0.0015 -0.23674 -1.87052 0 1.91263e-12 -3.45131e-12 0 1.00459e-20 3.68765e-27
7998 267 0.0015 -0.234415 -1.8714 0 -7.617e-13 8.24113e-13 0 1.00459e-20 5.33996e-28
1481 50 0.0015 0.579128 -1.8714 0 3.05305e-12 2.92621e-12 0 6.81478e-21 1.21031e-26
3529 118 0.0015 0.665887 -1.87136 0 4.17265e-12 3.94668e-12 0 0 1.67076e-26
2650 89 0.0015 -0.6044 -1.86922 0 -1.58539e-12 1.54805e-12 0 5.32605e-21 3.25992e-27
10303 344 0.0015 -0.49619 -1.86852 0 -2.46845e-12 1.07052e-12 0 3.36849e-20 4.91333e-27
10302 344 0.0015 -0.493366 -1.86943 0 1.44885e-12 8.91023e-16 0 1.68424e-20 1.10445e-27
6087 203 0.0015 -0.434641 -1.86821 0 6.3524e-12 2.84593e-13 0 0 8.9276e-27
6085 203 0.0015 -0.431008 -1.86994 0 -7.18776e-12 2.75735e-12 0 2.48474e-20 2.2991e-26
6086 203 0.0015 -0.432824 -1.86908 0 -1.77233e-12 -1.24478e-12 0 0 4.57746e-27
8001 267 0.0015 -0.241392 -1.86876 0 2.30406e-12 -2.50242e-12 0 0 3.43631e-27
8000 267 0.0015 -0.239066 -1.86964 0 -1.97754e-12 3.93293e-12 0 1.00459e-20 4.00184e-27
8012 268 0.0015 -0.171924 -1.86923 0 -1.28375e-14 -7.13752e-15 0 1.90242e-21 6.48662e-28
10332 345 0.0015 -0.0679644 -1.86909 0 -2.06376e-13 -3.45008e-13 0 3.14298e-20 4.4805e-27
1957 66 0.0015 0.0127576 -1.86871 0 1.14506e-13 -1.15499e-12 0 0 1.16732e-27
10269 343 0.0015 0.423451 -1.86924 0 -1.20724e-13 -4.23341e-13 0 0 3.17774e-28
1482 50 0.0015 0.581354 -1.86848 0 -9.0747e-13 5.00381e-13 0 6.81478e-21 1.17809e-27
3528 118 0.0015 0.668424 -1.86944 0 -7.66367e-13 2.99261e-13 0 0 4.01506e-27
2651 89 0.0015 -0.608121 -1.86636 0 2.13122e-12 -1.97488e-12 0 5.32605e-21 5.50624e-27
10305 344 0.0015 -0.501838 -1.8667 0 -5.60025e-12 2.2261e-12 0 3.36849e-20 1.51998e-26
10304 344 0.0015 -0.499014 -1.86761 0 5.35729e-12 -2.50226e-12 0 3.36849e-20 1.45942e-26
6089 203 0.0015 -0.438274 -1.86649 0 -5.16961e-12 5.92603e-12 0 0 2.18003e-26
6088 203 0.0015 -0.436457 -1.86735 0 -3.44404e-12 -2.41062e-12 0 0 6.09321e-27
8004 267 0.0015 -0.248369 -1.86612 0 2.03883e-12 3.51518e-12 0 0 1.4602e-27
8003 267 0.0015 -0.246044 -1.867 0 2.07648e-12 -5.34906e-12 0 0 7.3263e-27
8002 267 0.0015 -0.243718 -1.86788 0 -4.02897e-12 3.85872e-12 0 0 9.64291e-27
8046 269 0.0015 0.152008 -1.86695 0 3.3431e-13 -3.4515e-12 0 3.6872e-21 1.43863e-26
6004 201 0.0015 0.499982 -1.86721 0 -9.06825e-14 -1.60149e-13 0 0 2.16181e-28
3527 118 0.0015 0.670962 -1.86752 0 -2.67065e-12 -4.09968e-12 0 0 1.12027e-26
10307 344 0.0015 -0.507486 -1.86489 0 -5.3105e-12 1.34585e-12 0 3.36849e-20 1.31846e-26
10306 344 0.0015 -0.504662 -1.8658 0 5.75743e-12 -1.81225e-12 0 3.36849e-20 1.53306e-26
6090 203 0.0015 -0.440091 -1.86563 0 5.08357e-12 -3.65199e-12 0 0 2.11815e-26
8006 267 0.0015 -0.253021 -1.86436 0 4.32392e-12 5.24601e-12 0 0 1.74765e-27
8005 267 0.0015 -0.250695 -1.86524 0 -3.83652e-12 -2.62687e-12 0 0 2.44297e-27
10333 345 0.0015 -0.0686412 -1.86599 0 3.05665e-13 1.15537e-12 0 1.57149e-20 3.04581e-27
10203 341 0.0015 0.288506 -1.8653 0 -2.40498e-13 2.22832e-12 0 0 5.73839e-27
4532 152 0.0015 0.364868 -1.86469 0 -3.41283e-13 2.27888e-12 0 0 7.92336e-27
10270 343 0.0015 0.424172 -1.86529 0 6.11917e-13 3.64739e-12 0 0 1.15478e-26
1483 50 0.0015 0.58358 -1.86557 0 8.26217e-13 -1.48093e-12 0 6.81478e-21 4.70684e-28
3526 118 0.0015 0.673499 -1.86561 0 6.8545e-12 6.9225e-12 0 0 4.49978e-26
2652 89 0.0015 -0.611842 -1.86351 0 -1.59261e-12 1.46753e-12 0 5.32605e-21 3.71409e-27
10310 344 0.0015 -0.515959 -1.86217 0 -2.35042e-13 3.20373e-12 0 1.68424e-20 1.68273e-27
10309 344 0.0015 -0.513134 -1.86307 0 2.64544e-12 -3.78935e-12 0 0 5.87089e-27
10308 344 0.0015 -0.51031 -1.86398 0 1.63361e-13 1.34632e-12 0 1.68424e-20 7.54652e-27
6036 202 0.0015 -0.337434 -1.86244 0 7.93939e-14 -1.71144e-13 0 0 2.26065e-27
8008 267 0.0015 -0.257673 -1.8626 0 3.06142e-12 4.08547e-12 0 0 6.9763e-28
8007 267 0.0015 -0.255347 -1.86348 0 -4.18003e-12 -6.82134e-12 0 0 7.83828e-28
10334 345 0.0015 -0.0693181 -1.86288 0 -6.90425e-13 1.65913e-12 0 3.14298e-20 1.46214e-27
1958 66 0.0015 0.0122775 -1.86393 0 -2.38351e-13 2.17475e-12 0 0 5.03458e-27
1484 50 0.0015 0.585807 -1.86266 0 -1.98803e-12 3.15347e-13 0 6.81478e-21 9.22307e-28
3525 118 0.0015 0.676036 -1.86369 0 -6.8545e-12 -6.9225e-12 0 0 4.49978e-26
2653 89 0.0015 -0.615563 -1.86065 0 -5.27799e-15 -8.6966e-14 0 0 7.66548e-28
10312 344 0.0015 -0.521607 -1.86035 0 -2.70799e-12 1.79982e-12 0 1.68424e-20 4.55858e-27
10311 344 0.0015 -0.518783 -1.86126 0 2.40649e-13 -1.83315e-12 0 1.68424e-20 8.59607e-28
8010 267 0.0015 -0.262324 -1.86085 0 2.03455e-13 -2.05273e-13 0 0 4.77473e-29
8009 267 0.0015 -0.259998 -1.86172 0 -1.33338e-12 -6.45749e-13 0 0 4.42306e-28
8047 269 0.0015 0.151313 -1.86021 0 -6.00867e-14 1.03853e-12 0 0 1.37953e-27
10271 343 0.0015 0.424893 -1.86133 0 -1.14509e-12 -6.87067e-12 0 0 2.73071e-26
3524 118 0.0015 0.678573 -1.86178 0 2.67065e-12 4.09968e-12 0 0 1.12027e-26
10314 344 0.0015 -0.527255 -1.85854 0 -2.12991e-12 9.63968e-13 0 0 2.35833e-27
10313 344 0.0015 -0.524431 -1.85944 0 3.16099e-12 -1.85669e-12 0 0 5.46361e-27
10335 345 0.0015 -0.0699949 -1.85978 0 -2.23749e-13 4.62459e-13 0 3.14298e-20 3.32473e-27
1959 66 0.0015 0.0117974 -1.85915 0 2.14667e-13 -1.74686e-12 0 0 4.97869e-27
4771 160 0.0015 0.0785585 -1.85825 0 1.37654e-14 -4.7796e-13 0 0 5.84363e-28
10204 341 0.0015 0.287705 -1.85857 0 2.47018e-13 -2.22732e-12 0 3.6872e-21 5.73787e-27
6005 201 0.0015 0.502997 -1.85945 0 -4.30906e-13 -1.11816e-12 0 5.99535e-21 2.79284e-27
1485 50 0.0015 0.588033 -1.85975 0 3.1758e-12 1.2329e-12 0 1.36296e-20 4.82023e-27
3523 118 0.0015 0.681111 -1.85986 0 7.66367e-13 -2.99261e-13 0 0 4.01506e-27
2654 89 0.0015 -0.619284 -1.8578 0 -3.4519e-13 2.80934e-13 0 0 1.55542e-27
10316 344 0.0015 -0.532903 -1.85672 0 3.04474e-12 -3.3455e-13 0 1.68424e-20 6.95353e-27
10315 344 0.0015 -0.530079 -1.85763 0 6.91341e-13 -3.87032e-13 0 0 6.3781e-28
8013 268 0.0015 -0.167482 -1.85688 0 -2.29858e-14 -1.11773e-13 0 1.90242e-21 9.69475e-28
10336 345 0.0015 -0.0706718 -1.85667 0 1.33789e-12 -4.80747e-12 0 3.14298e-20 1.23658e-26
4533 152 0.0015 0.36352 -1.85607 0 2.9786e-13 -2.04148e-12 0 0 7.36571e-27
10272 343 0.0015 0.425614 -1.85738 0 1.00502e-12 5.81668e-12 0 0 2.10411e-26
1486 50 0.0015 0.59026 -1.85684 0 -3.1758e-12 -1.2329e-12 0 1.36296e-20 4.82023e-27
3522 118 0.0015 0.683648 -1.85795 0 -4.17265e-12 -3.94668e-12 0 0 1.67076e-26
3521 118 0.0015 0.686185 -1.85603 0 1.69227e-12 2.03132e-12 0 0 1.59268e-26
2655 89 0.0015 -0.623004 -1.85494 0 2.31185e-12 -2.00361e-12 0 0 6.90544e-27
10318 344 0.0015 -0.538552 -1.85491 0 2.56293e-12 -1.44304e-12 0 3.36849e-20 3.52843e-27
10317 344 0.0015 -0.535727 -1.85581 0 -4.47602e-12 1.10569e-12 0 3.36849e-20 9.31673e-27
6037 202 0.0015 -0.342237 -1.85471 0 6.42767e-13 -9.73786e-13 0 0 1.72116e-27
1960 66 0.0015 0.0113172 -1.85437 0 1.00802e-13 -1.10736e-12 0 5.20104e-21 1.23222e-27
3520 118 0.0015 0.688722 -1.85412 0 2.99697e-12 2.78134e-12 0 0 7.95905e-27
2656 89 0.0015 -0.626725 -1.85209 0 -7.8625e-13 1.03326e-12 0 0 6.61527e-27
10320 344 0.0015 -0.5442 -1.85309 0 6.66894e-13 -6.3778e-13 0 0 5.6766e-28
10319 344 0.0015 -0.541376 -1.854 0 -1.63331e-12 1.5043e-12 0 1.68424e-20 1.72501e-27
10337 345 0.0015 -0.0713486 -1.85356 0 -1.08454e-12 4.26105e-12 0 1.57149e-20 1.10109e-26
8048 269 0.0015 0.150617 -1.85348 0 1.06889e-13 -1.47921e-12 0 0 3.13402e-27
10273 343 0.0015 0.426335 -1.85342 0 -9.87835e-14 -7.11489e-13 0 0 7.13785e-27
1487 50 0.0015 0.592486 -1.85392 0 1.98803e-12 -3.15347e-13 0 6.81478e-21 9.22307e-28
3519 118 0.0015 0.69126 -1.8522 0 -2.05563e-12 -2.62021e-12 0 0 6.45832e-27
10338 345 0.0015 -0.0720254 -1.85046 0 -3.96908e-13 2.22416e-12 0 1.57149e-20 1.0338e-26
10205 341 0.0015 0.286904 -1.85184 0 -1.04398e-13 8.62858e-13 0 7.37441e-21 8.15933e-28
6006 201 0.0015 0.506013 -1.85168 0 7.32718e-13 1.8644e-12 0 1.19907e-20 4.68334e-27
1488 50 0.0015 0.594712 -1.85101 0 -8.26217e-13 1.48093e-12 0 6.81478e-21 4.70684e-28
3518 118 0.0015 0.693797 -1.85028 0 1.15672e-12 1.30949e-12 0 1.57149e-20 1.43162e-27
2657 89 0.0015 -0.630446 -1.84923 0 -1.30765e-12 9.05792e-13 0 0 1.64951e-27
1961 66 0.0015 0.0108371 -1.84959 0 7.85403e-14 -1.20548e-12 0 5.20104e-21 7.38609e-27
4772 160 0.0015 0.0782973 -1.84905 0 -2.87103e-14 9.1277e-13 0 0 1.06813e-27
10274 343 0.0015 0.427056 -1.84946 0 -6.71834e-13 -3.96656e-12 0 0 9.89472e-27
1489 50 0.0015 0.596939 -1.8481 0 9.0747e-13 -5.00381e-13 0 6.81478e-21 1.17809e-27
3517 118 0.0015 0.696334 -1.84837 0 -5.46435e-13 -2.7198e-13 0 1.57149e-20 1.38977e-27
2658 89 0.0015 -0.634167 -1.84638 0 7.4391e-13 -1.0775e-12 0 0 1.05361e-27
6038 202 0.0015 -0.34704 -1.84697 0 -1.76203e-13 2.48501e-13 0 0 1.12283e-27
10339 345 0.0015 -0.0727023 -1.84735 0 8.77432e-13 -4.69519e-12 0 1.57149e-20 1.14374e-26
8049 269 0.0015 0.149922 -1.84674 0 -1.544e-13 1.63173e-12 0 0 3.30329e-27
6541 219 0.0015 0.213251 -1.84656 0 -3.40454e-14 3.03204e-13 0 0 1.83628e-28
4534 152 0.0015 0.362172 -1.84745 0 4.80334e-14 -2.46824e-13 0 5.72705e-21 1.20228e-27
3516 118 0.0015 0.698871 -1.84645 0 -3.11226e-12 -2.40896e-12 0 1.57149e-20 1.04645e-26
8014 268 0.0015 -0.163039 -1.84452 0 2.8341e-13 8.26544e-13 0 0 1.39506e-27
10340 345 0.0015 -0.0733791 -1.84424 0 -2.95341e-13 1.71277e-12 0 1.57149e-20 2.04905e-27
1962 66 0.0015 0.010357 -1.84481 0 -6.56072e-13 7.06695e-12 0 5.20104e-21 3.87888e-26
10206 341 0.0015 0.286103 -1.84511 0 1.23638e-13 -7.76672e-13 0 7.37441e-21 6.40328e-28
10275 343 0.0015 0.427777 -1.84551 0 2.89344e-13 2.82474e-12 0 0 7.77438e-27
1490 50 0.0015 0.599165 -1.84519 0 -3.05305e-12 -2.92621e-12 0 6.81478e-21 1.21031e-26
3515 118 0.0015 0.701409 -1.84454 0 4.49345e-12 3.43394e-12 0 0 1.47014e-26
2659 89 0.0015 -0.637888 -1.84352 0 1.64322e-13 6.95322e-13 0 5.32605e-21 3.74217e-28
6007 201 0.0015 0.509028 -1.84391 0 -4.0453e-13 -1.07072e-12 0 1.19907e-20 2.04355e-27
1491 50 0.0015 0.601391 -1.84228 0 3.19125e-12 3.3768e-12 0 0 1.3052e-26
3514 118 0.0015 0.703946 -1.84262 0 -1.68083e-12 -1.78833e-12 0 0 4.51328e-27
2660 89 0.0015 -0.641609 -1.84066 0 4.4117e-13 -1.14315e-12 0 1.06521e-20 2.08598e-27
10341 345 0.0015 -0.074056 -1.84114 0 6.38435e-13 -2.84579e-12 0 1.57149e-20 6.41711e-27
1963 66 0.0015 0.00987681 -1.84004 0 5.9689e-13 -6.14866e-12 0 0 3.46316e-26
10276 343 0.0015 0.428498 -1.84155 0 -2.89344e-13 -2.82474e-12 0 0 7.77438e-27
3513 118 0.0015 0.706483 -1.84071 0 -1.77345e-12 -6.81639e-13 0 0 3.52235e-27
6039 202 0.0015 -0.351842 -1.83924 0 2.04173e-13 -3.20361e-13 0 0 1.36662e-27
10342 345 0.0015 -0.0747328 -1.83803 0 -8.78015e-13 3.90144e-12 0 3.14298e-20 7.89296e-27
4773 160 0.0015 0.0780361 -1.83985 0 -2.28428e-17 2.31534e-13 0 0 1.61916e-27
8050 269 0.0015 0.149226 -1.84 0 -3.95821e-14 5.77304e-13 0 0 1.92773e-27
6542 219 0.0015 0.21269 -1.83947 0 -2.48895e-14 7.08308e-13 0 0 2.21e-27
10207 341 0.0015 0.285302 -1.83839 0 6.27877e-14 -8.17439e-13 0 3.6872e-21 3.87241e-27
4535 152 0.0015 0.360823 -1.83883 0 -4.4338e-14 3.36699e-13 0 5.72705e-21 1.06877e-27
1492 50 0.0015 0.603618 -1.83936 0 6.04279e-13 9.98603e-13 0 0 7.69728e-27
3512 118 0.0015 0.70902 -1.83879 0 4.74609e-12 3.39739e-12 0 0 1.65509e-26
2661 89 0.0015 -0.64533 -1.83781 0 -2.83622e-12 2.66428e-12 0 1.59781e-20 1.09964e-26
10277 343 0.0015 0.429219 -1.8376 0 6.71834e-13 3.96656e-12 0 0 9.89472e-27
6008 201 0.0015 0.512043 -1.83614 0 3.49834e-14 1.17253e-13 0 5.99535e-21 1.57013e-28
1493 50 0.0015 0.605844 -1.83645 0 -3.43313e-12 -4.3962e-12 0 0 1.60918e-26
3511 118 0.0015 0.711558 -1.83688 0 -3.04689e-12 -2.34475e-12 0 0 1.30523e-26
2662 89 0.0015 -0.649051 -1.83495 0 1.60714e-12 -1.12871e-12 0 1.59781e-20 9.53323e-27
10343 345 0.0015 -0.0754097 -1.83493 0 9.98114e-14 3.77887e-13 0 3.14298e-20 3.95957e-27
1964 66 0.0015 0.00939668 -1.83526 0 -1.73353e-13 1.63422e-12 0 5.20104e-21 2.25609e-27
2663 89 0.0015 -0.652772 -1.8321 0 -5.30733e-13 -2.4301e-13 0 1.06521e-20 1.70577e-27
10171 340 0.0015 -0.234195 -1.83312 0 3.29043e-13 -4.18451e-13 0 0 6.13727e-28
8015 268 0.0015 -0.158597 -1.83216 0 -3.46056e-13 -9.72322e-13 0 1.90242e-21 1.9679e-27
8051 269 0.0015 0.14853 -1.83326 0 3.78248e-13 -3.89688e-12 0 0 1.82909e-26
6543 219 0.0015 0.212128 -1.83239 0 1.69587e-13 -2.72723e-12 0 0 7.86207e-27
10278 343 0.0015 0.429939 -1.83364 0 9.87835e-14 7.11489e-13 0 0 7.13785e-27
1494 50 0.0015 0.60807 -1.83354 0 1.77353e-12 2.35606e-12 0 0 1.00887e-26
6040 202 0.0015 -0.356645 -1.83151 0 -9.99672e-13 1.61859e-12 0 0 4.96524e-27
10344 345 0.0015 -0.0760865 -1.83182 0 1.40575e-12 -8.3336e-12 0 1.57149e-20 4.30401e-26
1965 66 0.0015 0.00891654 -1.83048 0 2.37039e-13 -2.1347e-12 0 5.20104e-21 4.25663e-27
4774 160 0.0015 0.0777749 -1.83066 0 2.27317e-14 -9.5096e-13 0 0 1.34258e-27
10208 341 0.0015 0.284501 -1.83166 0 -2.19372e-13 1.85545e-12 0 0 3.89699e-27
4536 152 0.0015 0.359475 -1.83021 0 -1.20357e-13 6.5649e-13 0 5.72705e-21 5.60147e-28
1495 50 0.0015 0.610297 -1.83063 0 1.55627e-12 2.49158e-12 0 6.81478e-21 7.63578e-27
2664 89 0.0015 -0.656493 -1.82924 0 2.89525e-12 -1.61866e-12 0 5.32605e-21 8.32101e-27
10345 345 0.0015 -0.0767633 -1.82871 0 -2.03633e-12 1.10042e-11 0 0 5.77367e-26
10279 343 0.0015 0.43066 -1.82968 0 -1.00502e-12 -5.81668e-12 0 0 2.10411e-26
6009 201 0.0015 0.515058 -1.82837 0 3.17245e-13 9.17093e-13 0 5.99535e-21 1.72936e-27
2665 89 0.0015 -0.660213 -1.82639 0 -2.84625e-12 2.2203e-12 0 0 9.25745e-27
10172 340 0.0015 -0.238704 -1.82673 0 -5.43808e-13 6.72378e-13 0 0 8.52098e-28
8052 269 0.0015 0.147835 -1.82652 0 -5.85386e-13 5.64433e-12 0 0 3.0367e-26
1496 50 0.0015 0.612523 -1.82772 0 -5.19215e-13 -1.97491e-12 0 6.81478e-21 8.32899e-27
10346 345 0.0015 -0.0774402 -1.82561 0 4.62022e-13 -2.06788e-12 0 1.57149e-20 2.17479e-26
1966 66 0.0015 0.0084364 -1.8257 0 -2.26584e-13 1.85381e-12 0 5.20104e-21 4.05553e-27
6544 219 0.0015 0.211567 -1.8253 0 -2.67095e-14 9.69244e-13 0 0 6.94875e-27
10209 341 0.0015 0.2837 -1.82493 0 2.18546e-14 -3.51134e-14 0 3.6872e-21 9.88424e-28
10280 343 0.0015 0.431381 -1.82573 0 1.14509e-12 6.87067e-12 0 0 2.73071e-26
1497 50 0.0015 0.614749 -1.8248 0 -1.08664e-12 -8.58981e-14 0 6.81478e-21 7.45578e-28
2666 89 0.0015 -0.663934 -1.82353 0 8.05592e-13 -9.35862e-13 0 0 2.0767e-27
6041 202 0.0015 -0.361448 -1.82377 0 6.14045e-13 -1.03684e-12 0 0 3.81856e-27
10347 345 0.0015 -0.078117 -1.8225 0 1.31178e-13 -2.48814e-12 0 3.14298e-20 4.64096e-27
2667 89 0.0015 -0.667655 -1.82068 0 3.87184e-13 -3.86979e-13 0 0 3.16619e-28
10173 340 0.0015 -0.243212 -1.82034 0 -1.81206e-14 7.22856e-14 0 0 5.87233e-28
1967 66 0.0015 0.00795626 -1.82092 0 1.7475e-14 4.08982e-13 0 0 4.01854e-28
4775 160 0.0015 0.0775136 -1.82146 0 5.13197e-15 -2.56687e-13 0 0 9.56496e-28
4537 152 0.0015 0.358127 -1.82159 0 -1.04446e-13 7.80713e-13 0 0 3.79773e-27
10281 343 0.0015 0.432102 -1.82177 0 -6.11917e-13 -3.64739e-12 0 0 1.15478e-26
6010 201 0.0015 0.518074 -1.8206 0 -5.3739e-13 -1.63855e-12 0 1.19907e-20 3.43194e-27
1498 50 0.0015 0.616976 -1.82189 0 -7.51205e-13 -1.22953e-12 0 0 1.77214e-27
8016 268 0.0015 -0.154154 -1.81981 0 5.03087e-13 1.38982e-12 0 3.80484e-21 4.18044e-27
10348 345 0.0015 -0.0787939 -1.81939 0 1.52064e-12 -4.72807e-12 0 3.14298e-20 2.31451e-26
8053 269 0.0015 0.147139 -1.81978 0 2.38061e-13 -2.05726e-12 0 0 1.45053e-26
6545 219 0.0015 0.211005 -1.81821 0 -2.88638e-13 3.11754e-12 0 3.51396e-21 1.22967e-26
10210 341 0.0015 0.282899 -1.8182 0 1.7156e-14 -3.60348e-13 0 3.6872e-21 4.91684e-28
1499 50 0.0015 0.619202 -1.81898 0 7.79768e-13 3.45993e-13 0 0 2.0832e-27
2668 89 0.0015 -0.671376 -1.81782 0 2.53435e-13 8.09109e-14 0 0 8.49917e-28
6042 202 0.0015 -0.366251 -1.81604 0 8.44892e-13 -1.24657e-12 0 0 5.54705e-27
10349 345 0.0015 -0.0794707 -1.81629 0 -2.65251e-12 1.09722e-11 0 1.57149e-20 5.67245e-26
1968 66 0.0015 0.00747613 -1.81614 0 3.15662e-13 -3.58095e-12 0 0 1.28801e-26
10282 343 0.0015 0.432823 -1.81781 0 1.20724e-13 4.23341e-13 0 0 3.17774e-28
1500 50 0.0015 0.621428 -1.81607 0 1.52723e-13 5.94953e-13 0 0 3.25515e-28
2669 89 0.0015 -0.675097 -1.81497 0 -1.05017e-12 7.83662e-13 0 0 1.11869e-27
5941 199 0.0015 0.740778 -1.81551 0 -1.54343e-13 -6.49612e-13 0 0 1.18952e-27
2670 89 0.0015 -0.678818 -1.81211 0 5.01976e-13 -4.43541e-13 0 0 5.8179e-28
10174 340 0.0015 -0.24772 -1.81396 0 9.49281e-13 -1.34953e-12 0 0 3.73741e-27
10350 345 0.0015 -0.0801475 -1.81318 0 1.36507e-12 -6.01614e-12 0 0 3.36058e-26
4776 160 0.0015 0.0772524 -1.81226 0 -5.10304e-14 1.88565e-12 0 0 5.37214e-27
8054 269 0.0015 0.146443 -1.81304 0 1.76384e-13 -2.05643e-12 0 0 4.60758e-27
4538 152 0.0015 0.356779 -1.81297 0 5.08141e-14 -3.4149e-13 0 0 5.12702e-27
10283 343 0.0015 0.433544 -1.81386 0 -1.77017e-13 -1.29133e-12 0 1.24237e-20 2.16717e-27
6011 201 0.0015 0.521089 -1.81283 0 -1.20194e-13 -8.00566e-15 0 1.7986e-20 3.67414e-27
1969 66 0.0015 0.00699599 -1.81136 0 -7.53827e-13 7.4531e-12 0 0 3.86843e-26
6546 219 0.0015 0.210443 -1.81113 0 2.12196e-13 -2.36375e-12 0 7.02791e-21 1.11838e-26
10211 341 0.0015 0.282098 -1.81148 0 1.87988e-14 1.7456e-13 0 3.6872e-21 2.08229e-28
6043 202 0.0015 -0.371054 -1.8083 0 -1.32729e-12 1.99755e-12 0 0 7.66883e-27
10284 343 0.0015 0.434265 -1.8099 0 8.51334e-14 1.74574e-12 0 1.24237e-20 2.28966e-27
10175 340 0.0015 -0.252228 -1.80757 0 -9.64129e-13 1.40212e-12 0 0 3.83287e-27
8017 268 0.0015 -0.149712 -1.80745 0 -3.85935e-13 -1.06033e-12 0 3.80484e-21 3.15966e-27
1970 66 0.0015 0.00651585 -1.80658 0 8.94383e-13 -8.40486e-12 0 5.20104e-21 4.77659e-26
8055 269 0.0015 0.145748 -1.8063 0 -1.95941e-13 2.36649e-12 0 0 5.52785e-27
5942 199 0.0015 0.743061 -1.80618 0 4.76463e-14 2.48363e-13 0 2.60052e-21 1.6493e-27
6547 219 0.0015 0.209882 -1.80404 0 7.22377e-14 -9.4558e-13 0 7.02791e-21 1.75096e-27
10212 341 0.0015 0.281297 -1.80475 0 -2.12139e-13 1.56877e-12 0 3.6872e-21 6.87919e-27