ITEM: TIMESTEP
12470
ITEM: NUMBER OF ATOMS
10500
ITEM: BOX BOUNDS pp pp pp
-1.0249999999999999e+00 1.0249999999999999e+00
-2.0000000000000000e+00 2.0000000000000000e+00
-5.0000000000000003e-02 5.0000000000000003e-02
ITEM: ATOMS id type radius x y z fx fy fz c_bendingE c_stretchingE
10321 345 0.0015 -0.0605191 -1.90326 0 1.51493e-13 -8.89781e-13 0 0 7.17921e-28
6031 202 0.0015 -0.31342 -1.90111 0 -1.11398e-13 1.58737e-13 0 0 9.48009e-29
10322 345 0.0015 -0.061196 -1.90016 0 -4.82383e-13 2.73341e-12 0 0 3.81194e-27
8041 269 0.0015 0.155487 -1.90065 0 -2.43692e-14 1.88032e-13 0 1.10616e-20 6.76113e-29
10261 343 0.0015 0.417684 -1.90089 0 4.97684e-14 4.63717e-13 0 0 2.41649e-28
1471 50 0.0015 0.556864 -1.90052 0 -8.80749e-13 -1.30769e-12 0 6.81478e-21 2.52192e-27
10323 345 0.0015 -0.0618728 -1.89705 0 3.1521e-13 -1.95487e-12 0 0 3.10382e-27
1951 66 0.0015 0.0156385 -1.89738 0 -1.03593e-13 1.09841e-12 0 0 1.62392e-27
10262 343 0.0015 0.418405 -1.89694 0 9.52474e-14 1.7048e-13 0 0 7.13476e-28
1472 50 0.0015 0.559091 -1.8976 0 1.23426e-14 5.19868e-13 0 6.81478e-21 3.87623e-27
2641 89 0.0015 -0.570912 -1.89491 0 4.99426e-13 -3.31484e-13 0 5.32605e-21 4.65918e-28
1473 50 0.0015 0.561317 -1.89469 0 1.75011e-12 1.71277e-12 0 6.81478e-21 2.99741e-27
2642 89 0.0015 -0.574633 -1.89206 0 -8.34158e-13 5.71104e-13 0 1.06521e-20 6.86461e-28
6032 202 0.0015 -0.318223 -1.89337 0 5.34398e-13 -7.91163e-13 0 0 1.55703e-27
10324 345 0.0015 -0.0625496 -1.89394 0 4.3943e-13 -1.64995e-12 0 0 2.90617e-27
1952 66 0.0015 0.0151583 -1.8926 0 2.07894e-13 -2.31176e-12 0 0 3.60214e-27
8042 269 0.0015 0.154791 -1.89391 0 1.45537e-13 -1.26845e-12 0 1.47488e-20 2.2918e-27
10263 343 0.0015 0.419126 -1.89298 0 -3.89696e-13 -1.96215e-12 0 0 2.50854e-27
3540 118 0.0015 0.637977 -1.89243 0 -1.13751e-12 -1.0393e-12 0 1.57149e-20 2.07818e-27
6061 203 0.0015 -0.387409 -1.89062 0 4.82136e-13 2.16831e-13 0 0 6.55648e-29
10325 345 0.0015 -0.0632265 -1.89084 0 -4.34784e-13 1.63525e-12 0 0 2.90924e-27
10231 342 0.0015 0.215 -1.89 0 5.00869e-13 0 0 0 4.80593e-29
10232 342 0.0015 0.21569 -1.89 0 -9.05748e-13 0 0 0 7.94285e-29
10233 342 0.0015 0.216379 -1.89 0 2.17548e-13 0 0 0 3.80919e-29
10234 342 0.0015 0.217069 -1.89 0 3.62876e-13 0 0 0 1.25815e-29
10235 342 0.0015 0.217759 -1.89 0 -1.12352e-12 0 0 0 1.78014e-28
10236 342 0.0015 0.218448 -1.89 0 1.73839e-12 0 0 0 2.91908e-28
10237 342 0.0015 0.219138 -1.89 0 -5.79536e-13 0 0 0 1.28289e-28
10238 342 0.0015 0.219828 -1.89 0 2.53325e-13 0 0 0 4.98968e-29
10239 342 0.0015 0.220517 -1.89 0 -1.15863e-12 0 0 0 1.3374e-28
10240 342 0.0015 0.221207 -1.89 0 9.41747e-13 0 0 0 1.04098e-28
10241 342 0.0015 0.221897 -1.89 0 -1.08441e-13 0 0 0 1.54012e-29
10242 342 0.0015 0.222586 -1.89 0 -8.33528e-13 0 0 0 9.60637e-29
10243 342 0.0015 0.223276 -1.89 0 4.70874e-13 0 0 0 1.01954e-28
10244 342 0.0015 0.223966 -1.89 0 8.69749e-13 0 0 0 8.94583e-29
10245 342 0.0015 0.224655 -1.89 0 -1.26796e-12 0 0 0 1.53996e-28
10246 342 0.0015 0.225345 -1.89 0 1.26796e-12 0 0 0 1.53996e-28
10247 342 0.0015 0.226034 -1.89 0 -8.69749e-13 0 0 0 8.94583e-29
10248 342 0.0015 0.226724 -1.89 0 -4.70874e-13 0 0 0 1.01954e-28
10249 342 0.0015 0.227414 -1.89 0 8.33528e-13 0 0 0 9.60637e-29
10250 342 0.0015 0.228103 -1.89 0 1.08441e-13 0 0 0 1.54012e-29
10251 342 0.0015 0.228793 -1.89 0 -9.41747e-13 0 0 0 1.04098e-28
10252 342 0.0015 0.229483 -1.89 0 1.15863e-12 0 0 0 1.3374e-28
10253 342 0.0015 0.230172 -1.89 0 -2.53325e-13 0 0 0 4.98968e-29
10254 342 0.0015 0.230862 -1.89 0 5.79536e-13 0 0 0 1.28289e-28
10255 342 0.0015 0.231552 -1.89 0 -1.73839e-12 0 0 0 2.91908e-28
10256 342 0.0015 0.232241 -1.89 0 1.12352e-12 0 0 0 1.78014e-28
10257 342 0.0015 0.232931 -1.89 0 -3.62876e-13 0 0 0 1.25815e-29
10258 342 0.0015 0.233621 -1.89 0 -2.17548e-13 0 0 0 3.80919e-29
10259 342 0.0015 0.23431 -1.89 0 9.05748e-13 0 0 0 7.94285e-29
10260 342 0.0015 0.235 -1.89 0 -5.00869e-13 0 0 0 4.80593e-29
6001 201 0.0015 0.490936 -1.89052 0 -7.84736e-14 -2.18344e-13 0 0 1.24531e-28
1474 50 0.0015 0.563543 -1.89178 0 -8.35635e-13 -1.03323e-12 0 6.81478e-21 1.64652e-27
3539 118 0.0015 0.640514 -1.89051 0 -1.10881e-13 5.53571e-13 0 1.57149e-20 3.54545e-27
2643 89 0.0015 -0.578354 -1.8892 0 1.49882e-13 -1.5516e-13 0 1.06521e-20 2.7165e-28
6063 203 0.0015 -0.391043 -1.8889 0 1.8841e-12 2.21135e-12 0 0 2.05694e-27
6064 203 0.0015 -0.392859 -1.88804 0 1.52839e-12 -2.05964e-12 0 0 1.47811e-27
6062 203 0.0015 -0.389226 -1.88976 0 -2.59526e-12 -7.49803e-13 0 0 1.64324e-27
10264 343 0.0015 0.419847 -1.88903 0 4.09854e-13 2.01056e-12 0 0 2.58589e-27
1475 50 0.0015 0.56577 -1.88887 0 4.66854e-13 1.21613e-12 0 6.81478e-21 1.44927e-27
3538 118 0.0015 0.643052 -1.8886 0 1.67481e-12 -1.89273e-13 0 1.57149e-20 1.47116e-27
2644 89 0.0015 -0.582074 -1.88635 0 3.39686e-13 -1.21891e-13 0 5.32605e-21 7.874e-29
6066 203 0.0015 -0.396492 -1.88631 0 1.7972e-12 2.24567e-12 0 0 2.49667e-28
6065 203 0.0015 -0.394676 -1.88717 0 -2.41511e-12 -4.10849e-13 0 0 1.24847e-27
7981 267 0.0015 -0.194876 -1.88635 0 8.96261e-13 3.98805e-13 0 0 3.35797e-28
10326 345 0.0015 -0.0639033 -1.88773 0 -3.19881e-13 1.67879e-12 0 0 2.23895e-27
1953 66 0.0015 0.0146782 -1.88782 0 -2.06604e-13 2.4674e-12 0 0 4.08958e-27
8043 269 0.0015 0.154095 -1.88717 0 -3.10422e-13 2.85949e-12 0 1.8436e-20 8.24787e-27
3537 118 0.0015 0.645589 -1.88668 0 -1.43603e-12 1.48372e-12 0 0 9.34636e-29
6068 203 0.0015 -0.400126 -1.88459 0 7.79728e-13 6.78882e-12 0 0 1.37975e-27
6067 203 0.0015 -0.398309 -1.88545 0 -1.18643e-12 -4.76711e-12 0 0 5.19063e-28
6033 202 0.0015 -0.323025 -1.88564 0 -5.55859e-13 7.90152e-13 0 2.74394e-21 1.56755e-27
7983 267 0.0015 -0.199527 -1.8846 0 1.38776e-13 -1.17852e-12 0 0 1.20928e-27
7982 267 0.0015 -0.197202 -1.88548 0 -2.07227e-12 -2.06048e-13 0 0 1.27833e-27
10327 345 0.0015 -0.0645802 -1.88463 0 6.13957e-13 -2.77061e-12 0 0 3.60609e-27
10265 343 0.0015 0.420568 -1.88507 0 -4.21486e-13 -1.74662e-12 0 0 1.88292e-27
1476 50 0.0015 0.567996 -1.88596 0 -3.20551e-13 -1.20788e-12 0 6.81478e-21 1.44726e-27
3536 118 0.0015 0.648126 -1.88476 0 2.56211e-12 -1.12583e-12 0 0 1.05945e-27
2645 89 0.0015 -0.585795 -1.88349 0 3.40801e-14 -2.60179e-13 0 0 1.70411e-28
6071 203 0.0015 -0.405575 -1.882 0 -2.63539e-13 8.30668e-13 0 0 1.61977e-27
6070 203 0.0015 -0.403759 -1.88287 0 2.11719e-12 -8.39597e-13 0 0 1.56244e-27
6069 203 0.0015 -0.401942 -1.88373 0 -1.32847e-12 -3.80964e-12 0 0 1.226e-27
7985 267 0.0015 -0.204179 -1.88284 0 -1.60151e-12 -2.1525e-12 0 0 7.15435e-28
7984 267 0.0015 -0.201853 -1.88372 0 2.49946e-12 2.06316e-12 0 0 9.3899e-28
1954 66 0.0015 0.0141981 -1.88304 0 2.42626e-13 -2.87787e-12 0 0 5.65478e-27
6002 201 0.0015 0.493952 -1.88275 0 2.43203e-13 6.73511e-13 0 5.99535e-21 6.66636e-28
1477 50 0.0015 0.570222 -1.88304 0 -2.49996e-13 6.62032e-14 0 0 5.31935e-30
3535 118 0.0015 0.650663 -1.88285 0 -3.12815e-12 -5.58122e-14 0 0 2.91007e-27
2646 89 0.0015 -0.589516 -1.88064 0 -1.66626e-13 3.82699e-13 0 5.32605e-21 1.44296e-28
6073 203 0.0015 -0.409209 -1.88028 0 3.517e-12 -3.29149e-12 0 0 6.01124e-27
6072 203 0.0015 -0.407392 -1.88114 0 -2.24703e-12 1.84408e-12 0 0 2.54794e-27
7988 267 0.0015 -0.211156 -1.8802 0 -1.19138e-12 5.74612e-13 0 1.00459e-20 7.42872e-28
7987 267 0.0015 -0.208831 -1.88108 0 1.25554e-13 -5.7503e-13 0 1.00459e-20 7.84758e-29
7986 267 0.0015 -0.206505 -1.88196 0 2.99977e-13 1.4551e-12 0 1.00459e-20 4.33604e-29
8011 268 0.0015 -0.176367 -1.88159 0 -1.3785e-13 -3.7612e-13 0 0 5.85274e-28
10328 345 0.0015 -0.065257 -1.88152 0 -7.23864e-13 2.84981e-12 0 0 3.89771e-27
8044 269 0.0015 0.1534 -1.88043 0 3.12369e-13 -2.95485e-12 0 7.37441e-21 8.65385e-27
10266 343 0.0015 0.421289 -1.88111 0 4.28028e-13 1.62998e-12 0 0 1.71944e-27
1478 50 0.0015 0.572449 -1.88013 0 -4.72775e-13 -4.51214e-13 0 0 5.13511e-28
3534 118 0.0015 0.653201 -1.88093 0 1.93245e-12 6.01664e-13 0 0 2.09788e-27
10292 344 0.0015 -0.465124 -1.8785 0 5.12284e-13 -6.73354e-13 0 0 4.00914e-27
10291 344 0.0015 -0.4623 -1.87941 0 1.17817e-12 -1.70449e-13 0 0 1.13536e-27
6074 203 0.0015 -0.411025 -1.87942 0 -4.13557e-12 2.32469e-12 0 0 6.3376e-27
6075 203 0.0015 -0.412842 -1.87856 0 4.65311e-12 -1.19174e-12 0 0 6.28459e-27
7990 267 0.0015 -0.215808 -1.87844 0 1.14674e-12 -1.29018e-12 0 0 1.06604e-27
7989 267 0.0015 -0.213482 -1.87932 0 6.72693e-13 -5.62482e-14 0 0 7.40625e-28
10329 345 0.0015 -0.0659339 -1.87841 0 9.06695e-13 -3.10269e-12 0 0 4.60156e-27
1955 66 0.0015 0.0137179 -1.87827 0 -1.8677e-13 2.21995e-12 0 0 4.02018e-27
10201 341 0.0015 0.290108 -1.87875 0 -7.25327e-14 5.45914e-13 0 0 5.70639e-28
3533 118 0.0015 0.655738 -1.87902 0 -7.8376e-13 -7.43102e-13 0 0 5.31607e-28
2647 89 0.0015 -0.593237 -1.87778 0 2.67496e-13 -2.8486e-13 0 1.06521e-20 1.62501e-28
10294 344 0.0015 -0.470773 -1.87669 0 5.15325e-12 -6.99227e-13 0 1.68424e-20 1.12192e-26
10293 344 0.0015 -0.467948 -1.87759 0 -4.68638e-12 1.53627e-12 0 1.68424e-20 1.06101e-26
6077 203 0.0015 -0.416475 -1.87683 0 -1.98638e-12 -3.58636e-12 0 0 2.95875e-28
6076 203 0.0015 -0.414658 -1.87769 0 -2.22838e-12 2.27684e-12 0 0 3.9092e-27
6034 202 0.0015 -0.327828 -1.87791 0 1.03724e-13 -7.044e-14 0 1.09758e-20 1.25588e-28
7992 267 0.0015 -0.22046 -1.87668 0 2.57875e-12 -1.4601e-12 0 0 3.19797e-27
7991 267 0.0015 -0.218134 -1.87756 0 -2.49508e-12 2.09484e-12 0 0 3.42514e-27
10267 343 0.0015 0.42201 -1.87716 0 -1.91688e-13 -4.26212e-13 0 0 4.05729e-28
1479 50 0.0015 0.574675 -1.87722 0 3.40823e-13 -1.07361e-14 0 6.81478e-21 7.73391e-28
3532 118 0.0015 0.658275 -1.8771 0 1.39644e-12 1.17897e-12 0 0 1.59147e-27
2648 89 0.0015 -0.596958 -1.87493 0 -7.91639e-13 4.95286e-13 0 1.06521e-20 5.963e-28
10296 344 0.0015 -0.476421 -1.87487 0 1.83311e-12 -4.50061e-13 0 0 3.07161e-27
10295 344 0.0015 -0.473597 -1.87578 0 -4.09578e-12 2.83385e-13 0 1.68424e-20 6.55271e-27
6080 203 0.0015 -0.421925 -1.87425 0 -2.11586e-12 4.73593e-12 0 0 4.34808e-27
6079 203 0.0015 -0.420108 -1.87511 0 2.28766e-12 -2.44713e-12 0 0 2.9956e-27
6078 203 0.0015 -0.418291 -1.87597 0 9.88234e-13 3.07744e-12 0 0 8.39219e-28
7995 267 0.0015 -0.227437 -1.87404 0 -2.11031e-13 -3.2957e-12 0 0 3.81991e-28
7994 267 0.0015 -0.225111 -1.87492 0 -1.8973e-13 1.86077e-12 0 0 2.67732e-28
7993 267 0.0015 -0.222785 -1.8758 0 -6.63662e-13 -3.56996e-13 0 0 9.76688e-28
10330 345 0.0015 -0.0666107 -1.87531 0 -9.37913e-13 3.30925e-12 0 0 5.26163e-27
6003 201 0.0015 0.496967 -1.87498 0 -4.39057e-13 -1.1988e-12 0 5.99535e-21 1.99594e-27
1480 50 0.0015 0.576901 -1.87431 0 1.04441e-13 5.98644e-13 0 6.81478e-21 2.64695e-28
3531 118 0.0015 0.660812 -1.87519 0 -2.23042e-12 -1.1494e-12 0 0 2.70642e-27
2649 89 0.0015 -0.600679 -1.87207 0 3.29385e-13 -9.18402e-14 0 5.32605e-21 5.23936e-28
10299 344 0.0015 -0.484893 -1.87215 0 3.01285e-12 -8.22169e-13 0 0 4.04528e-27
10298 344 0.0015 -0.482069 -1.87306 0 -3.74191e-12 4.48212e-13 0 0 5.67339e-27
10297 344 0.0015 -0.479245 -1.87396 0 2.14222e-12 -5.46354e-15 0 0 3.27796e-27
6082 203 0.0015 -0.425558 -1.87252 0 6.3932e-14 3.90386e-12 0 4.96948e-20 7.32648e-28
6081 203 0.0015 -0.423741 -1.87338 0 -2.25462e-13 -6.60975e-12 0 2.48474e-20 2.28668e-27
7997 267 0.0015 -0.232089 -1.87228 0 -2.78678e-12 -1.53704e-12 0 0 2.27855e-27
7996 267 0.0015 -0.229763 -1.87316 0 9.87289e-13 3.80618e-12 0 0 3.77082e-28
10331 345 0.0015 -0.0672875 -1.8722 0 2.56578e-13 -1.24915e-12 0 0 3.51927e-27
1956 66 0.0015 0.0132378 -1.87349 0 1.90276e-13 -2.11359e-12 0 5.20104e-21 3.57633e-27
8045 269 0.0015 0.152704 -1.87369 0 -2.25649e-13 2.12828e-12 0 7.37441e-21 4.35722e-27
10202 341 0.0015 0.289307 -1.87202 0 1.78664e-13 -1.32014e-12 0 0 1.71952e-27
4531 152 0.0015 0.366216 -1.8733 0 8.38693e-14 -5.54779e-13 0 0 7.62827e-28
10268 343 0.0015 0.422731 -1.8732 0 2.50758e-13 1.16072e-12 0 0 1.96872e-27
3530 118 0.0015 0.66335 -1.87327 0 2.32291e-12 5.76161e-13 0 0 2.20835e-27
10301 344 0.0015 -0.490541 -1.87033 0 2.60533e-12 -2.79182e-12 0 0 4.67652e-27
10300 344 0.0015 -0.487717 -1.87124 0 -2.45149e-12 1.65496e-12 0 0 3.32343e-27
6084 203 0.0015 -0.429191 -1.8708 0 2.71866e-13 -1.08307e-12 0 2.48474e-20 4.74409e-28
6083 203 0.0015 -0.427374 -1.87166 0 1.36615e-12 4.13965e-13 0 4.96948e-20 4.3859e-28
6035 202 0.0015 -0.332631 -1.87017 0 2.76399e-13 -4.93533e-13 0 1.37197e-20 5.92172e-28
7999 267 0.0015 -0.23674 -1.87052 0 7.01628e-13 1.5698e-12 0 0 1.47607e-27
7998 267 0.0015 -0.234415 -1.8714 0 2.544e-12 -1.12822e-12 0 0 2.89566e-27
1481 50 0.0015 0.579128 -1.8714 0 6.61248e-13 5.15559e-13 0 6.81478e-21 7.21421e-28
3529 118 0.0015 0.665887 -1.87136 0 -9.90028e-13 2.88709e-13 0 0 7.91937e-28
2650 89 0.0015 -0.6044 -1.86922 0 9.64551e-14 -6.15832e-14 0 0 1.16696e-28
10303 344 0.0015 -0.49619 -1.86852 0 1.19553e-12 -1.976e-12 0 3.36849e-20 2.9795e-27
10302 344 0.0015 -0.493366 -1.86943 0 -2.97688e-12 3.17001e-12 0 1.68424e-20 5.96137e-27
6087 203 0.0015 -0.434641 -1.86821 0 -1.8261e-12 -1.07754e-12 0 4.96948e-20 3.14089e-27
6085 203 0.0015 -0.431008 -1.86994 0 -1.91655e-12 -2.31096e-12 0 0 4.683e-28
6086 203 0.0015 -0.432824 -1.86908 0 7.4658e-13 4.22075e-12 0 2.48474e-20 5.44354e-28
8001 267 0.0015 -0.241392 -1.86876 0 3.54681e-12 -7.41573e-13 0 0 4.45218e-27
8000 267 0.0015 -0.239066 -1.86964 0 -3.17074e-12 -6.5358e-13 0 0 2.69416e-27
8012 268 0.0015 -0.171924 -1.86923 0 3.81773e-13 1.04199e-12 0 1.90242e-21 2.41941e-27
10332 345 0.0015 -0.0679644 -1.86909 0 1.07553e-12 -3.69682e-12 0 0 9.49336e-27
1957 66 0.0015 0.0127576 -1.86871 0 -2.11137e-13 2.40062e-12 0 1.04021e-20 4.14562e-27
10269 343 0.0015 0.423451 -1.86924 0 -3.06462e-13 -1.79421e-12 0 1.24237e-20 2.22713e-27
1482 50 0.0015 0.581354 -1.86848 0 -1.22183e-12 -1.27359e-12 0 6.81478e-21 1.5686e-27
3528 118 0.0015 0.668424 -1.86944 0 1.94157e-13 1.62907e-14 0 0 2.52224e-28
2651 89 0.0015 -0.608121 -1.86636 0 4.71096e-13 -5.74294e-13 0 5.32605e-21 4.61139e-28
10305 344 0.0015 -0.501838 -1.8667 0 -5.52427e-12 2.01353e-12 0 1.68424e-20 1.52933e-26
10304 344 0.0015 -0.499014 -1.86761 0 2.41172e-12 3.9224e-14 0 3.36849e-20 3.7623e-27
6089 203 0.0015 -0.438274 -1.86649 0 -2.50877e-12 2.23988e-12 0 2.48474e-20 4.08098e-27
6088 203 0.0015 -0.436457 -1.86735 0 4.12225e-12 -2.51044e-12 0 4.96948e-20 6.49856e-27
8004 267 0.0015 -0.248369 -1.86612 0 2.70575e-12 3.43901e-13 0 2.00918e-20 2.00471e-27
8003 267 0.0015 -0.246044 -1.867 0 -6.82034e-13 -1.51619e-12 0 2.00918e-20 1.7983e-27
8002 267 0.0015 -0.243718 -1.86788 0 -2.48981e-12 1.94594e-12 0 1.00459e-20 3.38722e-27
8046 269 0.0015 0.152008 -1.86695 0 1.73282e-13 -1.61334e-12 0 3.6872e-21 2.55832e-27
6004 201 0.0015 0.499982 -1.86721 0 4.86875e-13 1.32154e-12 0 5.99535e-21 2.33118e-27
3527 118 0.0015 0.670962 -1.86752 0 -6.20526e-13 -6.89206e-13 0 0 3.66063e-28
10307 344 0.0015 -0.507486 -1.86489 0 -1.72046e-13 2.05335e-13 0 0 2.99838e-27
10306 344 0.0015 -0.504662 -1.8658 0 4.68078e-12 -2.43559e-12 0 0 1.33004e-26
6090 203 0.0015 -0.440091 -1.86563 0 3.7338e-13 -5.85658e-13 0 0 1.93354e-28
8006 267 0.0015 -0.253021 -1.86436 0 -5.42912e-13 1.30018e-13 0 0 1.63612e-28
8005 267 0.0015 -0.250695 -1.86524 0 -1.22403e-12 3.23344e-15 0 1.00459e-20 1.02923e-27
10333 345 0.0015 -0.0686412 -1.86599 0 -1.82299e-12 6.67833e-12 0 0 2.1203e-26
10203 341 0.0015 0.288506 -1.8653 0 -6.28969e-14 3.38424e-13 0 0 1.50967e-27
4532 152 0.0015 0.364868 -1.86469 0 -2.17434e-13 1.44505e-12 0 0 2.72658e-27
10270 343 0.0015 0.424172 -1.86529 0 6.05066e-14 3.93496e-13 0 1.24237e-20 2.89924e-28
1483 50 0.0015 0.58358 -1.86557 0 5.75426e-13 2.86142e-13 0 6.81478e-21 9.62939e-28
3526 118 0.0015 0.673499 -1.86561 0 6.81815e-13 2.78908e-13 0 0 2.42776e-28
2652 89 0.0015 -0.611842 -1.86351 0 -7.36067e-13 6.22399e-13 0 5.32605e-21 6.27485e-28
10310 344 0.0015 -0.515959 -1.86217 0 -1.22045e-12 4.09722e-13 0 3.36849e-20 7.50658e-28
10309 344 0.0015 -0.513134 -1.86307 0 2.78845e-13 -1.13009e-12 0 3.36849e-20 1.83909e-28
10308 344 0.0015 -0.51031 -1.86398 0 -1.03255e-12 1.36774e-12 0 1.68424e-20 1.27224e-27
6036 202 0.0015 -0.337434 -1.86244 0 -2.59382e-13 4.1043e-13 0 1.09758e-20 5.72156e-28
8008 267 0.0015 -0.257673 -1.8626 0 1.4544e-12 -1.62519e-12 0 1.00459e-20 1.29377e-27
8007 267 0.0015 -0.255347 -1.86348 0 -3.0103e-13 5.34775e-13 0 0 7.85989e-28
10334 345 0.0015 -0.0693181 -1.86288 0 1.41416e-12 -5.07676e-12 0 1.57149e-20 1.42204e-26
1958 66 0.0015 0.0122775 -1.86393 0 -3.66537e-14 -1.63598e-13 0 1.56031e-20 1.74994e-27
1484 50 0.0015 0.585807 -1.86266 0 -1.41323e-13 9.22486e-14 0 6.81478e-21 2.3844e-28
3525 118 0.0015 0.676036 -1.86369 0 -6.81815e-13 -2.78908e-13 0 0 2.42776e-28
2653 89 0.0015 -0.615563 -1.86065 0 9.94162e-13 -4.52269e-13 0 1.06521e-20 7.92848e-28
10312 344 0.0015 -0.521607 -1.86035 0 -1.73944e-12 -3.35805e-13 0 1.68424e-20 1.44931e-27
10311 344 0.0015 -0.518783 -1.86126 0 2.30507e-12 1.48927e-13 0 1.68424e-20 1.98812e-27
8010 267 0.0015 -0.262324 -1.86085 0 -7.59385e-13 -1.31701e-13 0 1.00459e-20 3.04221e-28
8009 267 0.0015 -0.259998 -1.86172 0 8.33144e-14 1.12367e-12 0 1.00459e-20 9.71985e-28
8047 269 0.0015 0.151313 -1.86021 0 -4.16212e-14 4.37283e-13 0 3.6872e-21 9.26855e-28
10271 343 0.0015 0.424893 -1.86133 0 1.01661e-13 6.81548e-13 0 1.24237e-20 3.96903e-28
3524 118 0.0015 0.678573 -1.86178 0 6.20526e-13 6.89206e-13 0 0 3.66063e-28
10314 344 0.0015 -0.527255 -1.85854 0 -8.67376e-13 -8.9362e-13 0 1.68424e-20 1.25793e-28
10313 344 0.0015 -0.524431 -1.85944 0 7.0783e-13 5.02921e-13 0 1.68424e-20 1.11538e-28
10335 345 0.0015 -0.0699949 -1.85978 0 -4.40916e-13 1.33323e-12 0 3.14298e-20 2.19506e-27
1959 66 0.0015 0.0117974 -1.85915 0 2.24397e-13 -1.79016e-12 0 1.56031e-20 2.25215e-27
4771 160 0.0015 0.0785585 -1.85825 0 -2.35442e-14 8.01733e-13 0 0 1.64427e-27
10204 341 0.0015 0.287705 -1.85857 0 -2.01287e-13 1.75468e-12 0 3.6872e-21 3.68123e-27
6005 201 0.0015 0.502997 -1.85945 0 -3.25373e-13 -8.65508e-13 0 0 1.09828e-27
1485 50 0.0015 0.588033 -1.85975 0 1.28878e-12 1.93614e-12 0 0 4.08502e-27
3523 118 0.0015 0.681111 -1.85986 0 -1.94157e-13 -1.62907e-14 0 0 2.52224e-28
2654 89 0.0015 -0.619284 -1.8578 0 -1.1606e-12 4.88544e-13 0 1.06521e-20 9.78931e-28
10316 344 0.0015 -0.532903 -1.85672 0 9.73461e-13 -3.62025e-13 0 0 6.84517e-28
10315 344 0.0015 -0.530079 -1.85763 0 5.00088e-13 1.07552e-12 0 0 8.15024e-29
8013 268 0.0015 -0.167482 -1.85688 0 -3.79639e-13 -1.03442e-12 0 3.80484e-21 2.39671e-27
10336 345 0.0015 -0.0706718 -1.85667 0 -1.96755e-13 8.45268e-13 0 3.14298e-20 4.54747e-28
4533 152 0.0015 0.36352 -1.85607 0 6.972e-14 -4.84532e-13 0 0 2.37256e-27
10272 343 0.0015 0.425614 -1.85738 0 -3.61472e-13 -2.238e-12 0 0 3.53495e-27
1486 50 0.0015 0.59026 -1.85684 0 -1.28878e-12 -1.93614e-12 0 0 4.08502e-27
3522 118 0.0015 0.683648 -1.85795 0 9.90028e-13 -2.88709e-13 0 0 7.91937e-28
3521 118 0.0015 0.686185 -1.85603 0 -2.32291e-12 -5.76161e-13 0 0 2.20835e-27
2655 89 0.0015 -0.623004 -1.85494 0 -1.08045e-12 8.71555e-13 0 1.59781e-20 5.22432e-27
10318 344 0.0015 -0.538552 -1.85491 0 1.21387e-12 1.16267e-12 0 1.68424e-20 4.58644e-28
10317 344 0.0015 -0.535727 -1.85581 0 -1.98564e-12 -8.01891e-13 0 0 1.12526e-27
6037 202 0.0015 -0.342237 -1.85471 0 -1.91511e-13 3.46796e-13 0 2.74394e-21 4.16244e-28
1960 66 0.0015 0.0113172 -1.85437 0 -1.71131e-13 1.74014e-12 0 1.04021e-20 2.14941e-27
3520 118 0.0015 0.688722 -1.85412 0 2.23042e-12 1.1494e-12 0 0 2.70642e-27
2656 89 0.0015 -0.626725 -1.85209 0 3.00571e-12 -1.87198e-12 0 1.06521e-20 8.16231e-27
10320 344 0.0015 -0.5442 -1.85309 0 1.48914e-12 -4.7623e-13 0 1.68424e-20 2.01412e-27
10319 344 0.0015 -0.541376 -1.854 0 -1.69933e-12 5.35395e-15 0 1.68424e-20 2.0167e-27
10337 345 0.0015 -0.0713486 -1.85356 0 1.17103e-12 -4.83379e-12 0 1.57149e-20 1.65705e-26
8048 269 0.0015 0.150617 -1.85348 0 -8.52957e-14 7.09726e-13 0 3.6872e-21 5.46256e-28
10273 343 0.0015 0.426335 -1.85342 0 3.04591e-13 1.95023e-12 0 0 3.24613e-27
1487 50 0.0015 0.592486 -1.85392 0 1.41323e-13 -9.22486e-14 0 6.81478e-21 2.3844e-28
3519 118 0.0015 0.69126 -1.8522 0 -1.39644e-12 -1.17897e-12 0 0 1.59147e-27
10338 345 0.0015 -0.0720254 -1.85046 0 -1.38226e-12 5.63705e-12 0 0 1.82001e-26
10205 341 0.0015 0.286904 -1.85184 0 8.62392e-14 -7.01512e-13 0 3.6872e-21 4.0474e-27
6006 201 0.0015 0.506013 -1.85168 0 2.3905e-13 5.86302e-13 0 0 4.6412e-28
1488 50 0.0015 0.594712 -1.85101 0 -5.75426e-13 -2.86142e-13 0 6.81478e-21 9.62939e-28
3518 118 0.0015 0.693797 -1.85028 0 7.8376e-13 7.43102e-13 0 0 5.31607e-28
2657 89 0.0015 -0.630446 -1.84923 0 -1.40657e-12 5.46954e-13 0 5.32605e-21 3.3467e-27
1961 66 0.0015 0.0108371 -1.84959 0 1.97694e-13 -2.33239e-12 0 5.20104e-21 4.31839e-27
4772 160 0.0015 0.0782973 -1.84905 0 3.63915e-14 -1.17515e-12 0 2.71488e-21 2.00108e-27
10274 343 0.0015 0.427056 -1.84946 0 -3.62743e-14 -4.60846e-13 0 0 1.27313e-28
1489 50 0.0015 0.596939 -1.8481 0 1.22183e-12 1.27359e-12 0 6.81478e-21 1.5686e-27
3517 118 0.0015 0.696334 -1.84837 0 -1.93245e-12 -6.01664e-13 0 0 2.09788e-27
2658 89 0.0015 -0.634167 -1.84638 0 -5.93629e-13 7.328e-13 0 5.32605e-21 8.0054e-28
6038 202 0.0015 -0.34704 -1.84697 0 2.12181e-14 -8.83683e-14 0 0 6.73854e-28
10339 345 0.0015 -0.0727023 -1.84735 0 -1.69669e-13 1.33228e-12 0 0 9.30551e-27
8049 269 0.0015 0.149922 -1.84674 0 -5.8318e-14 6.1487e-13 0 3.6872e-21 2.75668e-27
6541 219 0.0015 0.213251 -1.84656 0 -6.01002e-14 6.96375e-13 0 0 9.6468e-28
4534 152 0.0015 0.362172 -1.84745 0 1.58155e-13 -1.01649e-12 0 0 1.33424e-27
3516 118 0.0015 0.698871 -1.84645 0 3.12815e-12 5.58122e-14 0 0 2.91007e-27
8014 268 0.0015 -0.163039 -1.84452 0 7.09023e-14 1.86274e-13 0 5.70726e-21 6.99067e-28
10340 345 0.0015 -0.0733791 -1.84424 0 1.18456e-12 -6.0772e-12 0 1.57149e-20 1.70126e-26
1962 66 0.0015 0.010357 -1.84481 0 -2.37691e-13 2.64724e-12 0 0 5.02093e-27
10206 341 0.0015 0.286103 -1.84511 0 3.71095e-13 -3.10836e-12 0 3.6872e-21 1.25727e-26
10275 343 0.0015 0.427777 -1.84551 0 2.43863e-13 1.60217e-12 0 0 2.39276e-27
1490 50 0.0015 0.599165 -1.84519 0 -6.61248e-13 -5.15559e-13 0 6.81478e-21 7.21421e-28
3515 118 0.0015 0.701409 -1.84454 0 -2.56211e-12 1.12583e-12 0 0 1.05945e-27
2659 89 0.0015 -0.637888 -1.84352 0 2.38157e-12 -1.88263e-12 0 1.06521e-20 7.45946e-27
6007 201 0.0015 0.509028 -1.84391 0 -1.2318e-14 1.04052e-14 0 0 4.94294e-28
1491 50 0.0015 0.601391 -1.84228 0 -1.04441e-13 -5.98644e-13 0 6.81478e-21 2.64695e-28
3514 118 0.0015 0.703946 -1.84262 0 1.43603e-12 -1.48372e-12 0 0 9.34636e-29
2660 89 0.0015 -0.641609 -1.84066 0 -2.74714e-12 2.08537e-12 0 1.59781e-20 8.51158e-27
10341 345 0.0015 -0.074056 -1.84114 0 -7.97978e-13 4.73426e-12 0 1.57149e-20 1.16745e-26
1963 66 0.0015 0.00987681 -1.84004 0 1.63253e-13 -1.868e-12 0 0 2.35205e-27
10276 343 0.0015 0.428498 -1.84155 0 -2.43863e-13 -1.60217e-12 0 0 2.39276e-27
3513 118 0.0015 0.706483 -1.84071 0 -1.67481e-12 1.89273e-13 0 1.57149e-20 1.47116e-27
6039 202 0.0015 -0.351842 -1.83924 0 3.3497e-13 -4.59375e-13 0 0 4.12941e-28
10342 345 0.0015 -0.0747328 -1.83803 0 6.71074e-14 -1.05732e-12 0 1.57149e-20 2.06669e-27
4773 160 0.0015 0.0780361 -1.83985 0 -4.74224e-15 4.61693e-15 0 2.71488e-21 7.04601e-28
8050 269 0.0015 0.149226 -1.84 0 2.16401e-13 -2.0749e-12 0 3.6872e-21 4.11037e-27
6542 219 0.0015 0.21269 -1.83947 0 1.30602e-13 -1.43037e-12 0 0 2.03805e-27
10207 341 0.0015 0.285302 -1.83839 0 -4.27678e-13 3.57704e-12 0 0 1.40965e-26
4535 152 0.0015 0.360823 -1.83883 0 -6.32307e-14 3.84462e-13 0 0 1.0518e-27
1492 50 0.0015 0.603618 -1.83936 0 -3.40823e-13 1.07361e-14 0 6.81478e-21 7.73391e-28
3512 118 0.0015 0.70902 -1.83879 0 1.10881e-13 -5.53571e-13 0 1.57149e-20 3.54545e-27
2661 89 0.0015 -0.64533 -1.83781 0 9.40585e-13 -7.16483e-13 0 1.06521e-20 1.82446e-27
10277 343 0.0015 0.429219 -1.8376 0 3.62743e-14 4.60846e-13 0 0 1.27313e-28
6008 201 0.0015 0.512043 -1.83614 0 -2.24598e-13 -5.72218e-13 0 0 4.39581e-28
1493 50 0.0015 0.605844 -1.83645 0 4.72775e-13 4.51214e-13 0 0 5.13511e-28
3511 118 0.0015 0.711558 -1.83688 0 1.13751e-12 1.0393e-12 0 1.57149e-20 2.07818e-27
2662 89 0.0015 -0.649051 -1.83495 0 -2.11213e-13 2.10304e-13 0 5.32605e-21 1.14608e-28
10343 345 0.0015 -0.0754097 -1.83493 0 4.99932e-14 -6.06958e-13 0 0 1.86765e-28
1964 66 0.0015 0.00939668 -1.83526 0 -2.5077e-13 2.9994e-12 0 0 7.06148e-27
2663 89 0.0015 -0.652772 -1.8321 0 3.22989e-13 -2.42074e-13 0 0 1.29529e-28
10171 340 0.0015 -0.234195 -1.83312 0 -8.32143e-14 1.06993e-13 0 6.39056e-21 3.98124e-29
8015 268 0.0015 -0.158597 -1.83216 0 2.75427e-13 7.579e-13 0 3.80484e-21 1.5068e-27
8051 269 0.0015 0.14853 -1.83326 0 -6.684e-14 6.47458e-13 0 0 2.00715e-27
6543 219 0.0015 0.212128 -1.83239 0 -4.82566e-14 2.90402e-13 0 3.51396e-21 1.46259e-27
10278 343 0.0015 0.429939 -1.83364 0 -3.04591e-13 -1.95023e-12 0 0 3.24613e-27
1494 50 0.0015 0.60807 -1.83354 0 2.49996e-13 -6.62032e-14 0 0 5.31935e-30
6040 202 0.0015 -0.356645 -1.83151 0 -1.9115e-13 2.02877e-13 0 2.74394e-21 1.56732e-28
10344 345 0.0015 -0.0760865 -1.83182 0 -7.12638e-14 1.2253e-12 0 1.57149e-20 9.68555e-28
1965 66 0.0015 0.00891654 -1.83048 0 1.64342e-13 -2.35829e-12 0 0 6.0899e-27
4774 160 0.0015 0.0777749 -1.83066 0 -3.75778e-14 1.43059e-12 0 2.71488e-21 3.23149e-27
10208 341 0.0015 0.284501 -1.83166 0 8.75248e-14 -6.62732e-13 0 0 2.59087e-27
4536 152 0.0015 0.359475 -1.83021 0 -8.73797e-14 5.93718e-13 0 0 4.61202e-28
1495 50 0.0015 0.610297 -1.83063 0 3.20551e-13 1.20788e-12 0 6.81478e-21 1.44726e-27
2664 89 0.0015 -0.656493 -1.82924 0 3.21037e-13 -4.15761e-13 0 0 5.07402e-28
10345 345 0.0015 -0.0767633 -1.82871 0 2.78706e-13 -1.73008e-12 0 3.92872e-20 1.39521e-27
10279 343 0.0015 0.43066 -1.82968 0 3.61472e-13 2.238e-12 0 0 3.53495e-27
6009 201 0.0015 0.515058 -1.82837 0 3.04377e-14 2.31562e-14 0 5.99535e-21 3.36329e-28
2665 89 0.0015 -0.660213 -1.82639 0 2.91475e-15 2.18129e-13 0 5.32605e-21 7.981e-28
10172 340 0.0015 -0.238704 -1.82673 0 3.90792e-13 -5.11265e-13 0 6.39056e-21 5.99455e-28
8052 269 0.0015 0.147835 -1.82652 0 -1.02942e-13 9.80253e-13 0 0 1.016e-27
1496 50 0.0015 0.612523 -1.82772 0 -4.66854e-13 -1.21613e-12 0 6.81478e-21 1.44927e-27
10346 345 0.0015 -0.0774402 -1.82561 0 1.74124e-13 -7.27536e-13 0 3.92872e-20 2.35384e-27
1966 66 0.0015 0.0084364 -1.8257 0 2.07467e-13 -1.42137e-12 0 5.20104e-21 3.8194e-27
6544 219 0.0015 0.211567 -1.8253 0 1.37398e-14 1.13336e-13 0 3.51396e-21 6.06965e-28
10209 341 0.0015 0.2837 -1.82493 0 2.1279e-14 -4.81575e-13 0 0 3.46009e-28
10280 343 0.0015 0.431381 -1.82573 0 -1.01661e-13 -6.81548e-13 0 1.24237e-20 3.96903e-28
1497 50 0.0015 0.614749 -1.8248 0 8.35635e-13 1.03323e-12 0 6.81478e-21 1.64652e-27
2666 89 0.0015 -0.663934 -1.82353 0 -1.06509e-12 7.33585e-13 0 1.06521e-20 1.15456e-27
6041 202 0.0015 -0.361448 -1.82377 0 2.19628e-13 -2.56862e-13 0 5.48788e-21 2.42357e-28
10347 345 0.0015 -0.078117 -1.8225 0 -1.10758e-12 4.87099e-12 0 2.35723e-20 1.28961e-26
2667 89 0.0015 -0.667655 -1.82068 0 -4.32372e-14 3.22153e-14 0 2.66302e-20 1.8151e-27
10173 340 0.0015 -0.243212 -1.82034 0 -6.14469e-13 7.84825e-13 0 6.39056e-21 1.07654e-27
1967 66 0.0015 0.00795626 -1.82092 0 -2.8318e-13 2.51966e-12 0 5.20104e-21 4.73038e-27
4775 160 0.0015 0.0775136 -1.82146 0 6.53716e-14 -2.28126e-12 0 0 6.68786e-27
4537 152 0.0015 0.358127 -1.82159 0 3.16442e-16 -7.56275e-15 0 0 6.56255e-28
10281 343 0.0015 0.432102 -1.82177 0 -6.05066e-14 -3.93496e-13 0 1.24237e-20 2.89924e-28
6010 201 0.0015 0.518074 -1.8206 0 1.94134e-13 5.44856e-13 0 1.19907e-20 3.93014e-28
1498 50 0.0015 0.616976 -1.82189 0 -1.75011e-12 -1.71277e-12 0 6.81478e-21 2.99741e-27
8016 268 0.0015 -0.154154 -1.81981 0 -5.75697e-13 -1.57585e-12 0 1.90242e-21 5.50542e-27
10348 345 0.0015 -0.0787939 -1.81939 0 1.35959e-12 -5.83702e-12 0 0 1.63579e-26
8053 269 0.0015 0.147139 -1.81978 0 1.29766e-13 -1.26371e-12 0 0 1.52035e-27
6545 219 0.0015 0.211005 -1.81821 0 -1.34231e-13 1.4834e-12 0 3.51396e-21 2.8625e-27
10210 341 0.0015 0.282899 -1.8182 0 -7.61194e-14 1.01881e-12 0 0 1.75872e-27
1499 50 0.0015 0.619202 -1.81898 0 -1.23426e-14 -5.19868e-13 0 6.81478e-21 3.87623e-27
2668 89 0.0015 -0.671376 -1.81782 0 1.59433e-12 -1.2944e-12 0 2.66302e-20 2.81637e-27
6042 202 0.0015 -0.366251 -1.81604 0 -1.55376e-14 -3.44754e-14 0 5.48788e-21 5.15452e-28
10349 345 0.0015 -0.0794707 -1.81629 0 -9.56199e-13 4.0699e-12 0 0 7.96203e-27
1968 66 0.0015 0.00747613 -1.81614 0 -3.83436e-14 2.63544e-13 0 1.04021e-20 2.68081e-27
10282 343 0.0015 0.432823 -1.81781 0 3.06462e-13 1.79421e-12 0 1.24237e-20 2.22713e-27
1500 50 0.0015 0.621428 -1.81607 0 8.80749e-13 1.30769e-12 0 6.81478e-21 2.52192e-27
2669 89 0.0015 -0.675097 -1.81497 0 -1.38563e-12 1.16259e-12 0 2.13042e-20 2.34349e-27
5941 199 0.0015 0.740778 -1.81551 0 2.47424e-13 1.01186e-12 0 0 2.89528e-27
2670 89 0.0015 -0.678818 -1.81211 0 4.71245e-13 -3.96645e-13 0 5.32605e-21 4.93281e-28
10174 340 0.0015 -0.24772 -1.81396 0 5.90867e-14 1.62808e-14 0 0 9.90727e-28
10350 345 0.0015 -0.0801475 -1.81318 0 3.86278e-13 -1.67258e-12 0 0 2.60188e-27
4776 160 0.0015 0.0772524 -1.81226 0 -5.09117e-14 1.67583e-12 0 8.14464e-21 4.33704e-27
8054 269 0.0015 0.146443 -1.81304 0 -7.66863e-14 6.75873e-13 0 0 7.15641e-28
4538 152 0.0015 0.356779 -1.81297 0 1.61028e-13 -1.01006e-12 0 0 1.37253e-27
10283 343 0.0015 0.433544 -1.81386 0 -2.50758e-13 -1.16072e-12 0 0 1.96872e-27
6011 201 0.0015 0.521089 -1.81283 0 -4.97889e-13 -1.31646e-12 0 1.7986e-20 2.95496e-27
1969 66 0.0015 0.00699599 -1.81136 0 2.23116e-13 -1.90136e-12 0 1.04021e-20 2.52071e-27
6546 219 0.0015 0.210443 -1.81113 0 1.23553e-13 -1.44635e-12 0 0 2.81578e-27
10211 341 0.0015 0.282098 -1.81148 0 1.63789e-13 -1.56896e-12 0 0 2.4582e-27
6043 202 0.0015 -0.371054 -1.8083 0 -2.99081e-13 5.12142e-13 0 2.74394e-21 4.49989e-28
10284 343 0.0015 0.434265 -1.8099 0 1.91688e-13 4.26212e-13 0 0 4.05729e-28
10175 340 0.0015 -0.252228 -1.80757 0 7.58079e-13 -1.11735e-12 0 0 2.16661e-27
8017 268 0.0015 -0.149712 -1.80745 0 4.65578e-13 1.26911e-12 0 0 4.43561e-27
1970 66 0.0015 0.00651585 -1.80658 0 7.48114e-14 -9.82389e-13 0 1.04021e-20 5.01955e-27
8055 269 0.0015 0.145748 -1.8063 0 3.56965e-14 -1.08216e-13 0 0 1.21574e-29
5942 199 0.0015 0.743061 -1.80618 0 -5.35759e-13 -2.20396e-12 0 0 6.90897e-27
6547 219 0.0015 0.209882 -1.80404 0 1.98012e-14 -2.27332e-13 0 0 7.10082e-28