ITEM: TIMESTEP
1720
ITEM: NUMBER OF ATOMS
10500
ITEM: BOX BOUNDS pp pp pp
-1.0249999999999999e+00 1.0249999999999999e+00
-2.0000000000000000e+00 2.0000000000000000e+00
-5.0000000000000003e-02 5.0000000000000003e-02
ITEM: ATOMS id type radius x y z fx fy fz c_bendingE c_stretchingE
10321 345 0.0015 -0.0605191 -1.90326 0 8.18586e-14 -3.91037e-13 0 0 1.40944e-28
6031 202 0.0015 -0.31342 -1.90111 0 -1.70482e-13 2.69615e-13 0 0 2.57306e-28
10322 345 0.0015 -0.061196 -1.90016 0 -4.42096e-14 4.63676e-14 0 0 2.459e-28
8041 269 0.0015 0.155487 -1.90065 0 -9.15724e-15 8.7669e-14 0 0 1.46221e-29
10261 343 0.0015 0.417684 -1.90089 0 -2.08342e-14 -6.54637e-14 0 0 5.18592e-30
1471 50 0.0015 0.556864 -1.90052 0 5.09958e-13 5.60019e-13 0 6.81478e-21 5.79838e-28
10323 345 0.0015 -0.0618728 -1.89705 0 9.42309e-14 1.64175e-13 0 0 1.41857e-28
1951 66 0.0015 0.0156385 -1.89738 0 2.30255e-14 -2.25077e-13 0 5.20104e-21 6.82902e-29
10262 343 0.0015 0.418405 -1.89694 0 3.08104e-15 -6.82531e-14 0 0 2.54595e-29
1472 50 0.0015 0.559091 -1.8976 0 -2.96924e-13 -1.15978e-13 0 6.81478e-21 8.16536e-28
2641 89 0.0015 -0.570912 -1.89491 0 4.23058e-13 -2.90755e-13 0 0 3.42371e-28
1473 50 0.0015 0.561317 -1.89469 0 -8.36885e-13 -1.2538e-12 0 6.81478e-21 1.30066e-27
2642 89 0.0015 -0.574633 -1.89206 0 -9.52531e-13 6.7604e-13 0 0 9.00639e-28
6032 202 0.0015 -0.318223 -1.89337 0 3.69274e-13 -5.88067e-13 0 0 6.13689e-28
10324 345 0.0015 -0.0625496 -1.89394 0 -2.03972e-13 2.39186e-13 0 0 4.15662e-29
1952 66 0.0015 0.0151583 -1.8926 0 -8.93618e-14 8.74915e-13 0 1.04021e-20 6.37557e-28
8042 269 0.0015 0.154791 -1.89391 0 5.02318e-14 -4.72413e-13 0 0 2.96362e-28
10263 343 0.0015 0.419126 -1.89298 0 1.0831e-13 5.54052e-13 0 0 2.26606e-28
3540 118 0.0015 0.637977 -1.89243 0 -2.47183e-14 -1.29651e-13 0 0 8.45528e-30
6061 203 0.0015 -0.387409 -1.89062 0 -5.78273e-13 -7.75008e-13 0 0 2.02131e-29
10325 345 0.0015 -0.0632265 -1.89084 0 -6.77718e-14 4.89827e-13 0 1.57149e-20 2.87307e-28
10231 342 0.0015 0.215 -1.89 0 2.83543e-13 0 0 0 1.54016e-29
10232 342 0.0015 0.21569 -1.89 0 -7.6042e-13 0 0 0 5.90076e-29
10233 342 0.0015 0.216379 -1.89 0 9.41303e-13 0 0 0 8.49657e-29
10234 342 0.0015 0.217069 -1.89 0 -7.96641e-13 0 0 0 6.25027e-29
10235 342 0.0015 0.217759 -1.89 0 5.42871e-13 0 0 0 2.96801e-29
10236 342 0.0015 0.218448 -1.89 0 -2.17326e-13 0 0 0 8.54449e-30
10237 342 0.0015 0.219138 -1.89 0 -7.1998e-14 0 0 0 1.19298e-30
10238 342 0.0015 0.219828 -1.89 0 1.44662e-13 0 0 0 2.02552e-30
10239 342 0.0015 0.220517 -1.89 0 -1.81327e-13 0 0 0 3.36859e-30
10240 342 0.0015 0.221207 -1.89 0 2.53547e-13 0 0 0 6.2118e-30
10241 342 0.0015 0.221897 -1.89 0 -2.53325e-13 0 0 0 6.2118e-30
10242 342 0.0015 0.222586 -1.89 0 2.90435e-13 0 0 0 8.38741e-30
10243 342 0.0015 0.223276 -1.89 0 -6.16646e-13 0 0 0 4.3095e-29
10244 342 0.0015 0.223966 -1.89 0 1.23129e-12 0 0 0 1.56989e-28
10245 342 0.0015 0.224655 -1.89 0 -1.62972e-12 0 0 0 2.54702e-28
10246 342 0.0015 0.225345 -1.89 0 1.62972e-12 0 0 0 2.54702e-28
10247 342 0.0015 0.226034 -1.89 0 -1.23129e-12 0 0 0 1.56989e-28
10248 342 0.0015 0.226724 -1.89 0 6.16646e-13 0 0 0 4.3095e-29
10249 342 0.0015 0.227414 -1.89 0 -2.90435e-13 0 0 0 8.38741e-30
10250 342 0.0015 0.228103 -1.89 0 2.53325e-13 0 0 0 6.2118e-30
10251 342 0.0015 0.228793 -1.89 0 -2.53547e-13 0 0 0 6.2118e-30
10252 342 0.0015 0.229483 -1.89 0 1.81327e-13 0 0 0 3.36859e-30
10253 342 0.0015 0.230172 -1.89 0 -1.44662e-13 0 0 0 2.02552e-30
10254 342 0.0015 0.230862 -1.89 0 7.1998e-14 0 0 0 1.19298e-30
10255 342 0.0015 0.231552 -1.89 0 2.17326e-13 0 0 0 8.54449e-30
10256 342 0.0015 0.232241 -1.89 0 -5.42871e-13 0 0 0 2.96801e-29
10257 342 0.0015 0.232931 -1.89 0 7.96641e-13 0 0 0 6.25027e-29
10258 342 0.0015 0.233621 -1.89 0 -9.41303e-13 0 0 0 8.49657e-29
10259 342 0.0015 0.23431 -1.89 0 7.6042e-13 0 0 0 5.90076e-29
10260 342 0.0015 0.235 -1.89 0 -2.83543e-13 0 0 0 1.54016e-29
6001 201 0.0015 0.490936 -1.89052 0 -6.44944e-14 -1.63077e-13 0 0 7.11846e-29
1474 50 0.0015 0.563543 -1.89178 0 4.05698e-13 4.53017e-13 0 0 1.24009e-27
3539 118 0.0015 0.640514 -1.89051 0 5.03369e-14 2.52599e-13 0 0 1.63474e-29
2643 89 0.0015 -0.578354 -1.8892 0 5.07565e-13 -4.21769e-13 0 0 5.58299e-28
6063 203 0.0015 -0.391043 -1.8889 0 -4.56388e-13 -1.98442e-12 0 2.48474e-20 7.38106e-29
6064 203 0.0015 -0.392859 -1.88804 0 -6.78029e-13 -2.18261e-13 0 2.48474e-20 8.5105e-29
6062 203 0.0015 -0.389226 -1.88976 0 1.18889e-12 2.25999e-12 0 0 2.42324e-29
10264 343 0.0015 0.419847 -1.88903 0 -1.45161e-13 -6.35533e-13 0 0 2.61132e-28
1475 50 0.0015 0.56577 -1.88887 0 5.75251e-13 6.98444e-13 0 0 4.18936e-28
3538 118 0.0015 0.643052 -1.8886 0 6.32335e-13 3.73138e-13 0 1.57149e-20 6.07566e-28
2644 89 0.0015 -0.582074 -1.88635 0 -3.45237e-14 1.26152e-13 0 0 1.28934e-29
6066 203 0.0015 -0.396492 -1.88631 0 -2.51909e-13 -4.57352e-13 0 0 3.4413e-29
6065 203 0.0015 -0.394676 -1.88717 0 9.90598e-13 1.25685e-12 0 2.48474e-20 3.56094e-29
7981 267 0.0015 -0.194876 -1.88635 0 2.88807e-13 -5.41738e-14 0 1.00459e-20 5.78056e-29
10326 345 0.0015 -0.0639033 -1.88773 0 2.64353e-13 -8.80174e-13 0 3.92872e-20 3.9114e-28
1953 66 0.0015 0.0146782 -1.88782 0 9.37618e-14 -9.17106e-13 0 1.56031e-20 6.65567e-28
8043 269 0.0015 0.154095 -1.88717 0 -5.30015e-14 4.79424e-13 0 0 2.9887e-28
3537 118 0.0015 0.645589 -1.88668 0 -1.19299e-12 -8.6064e-13 0 1.57149e-20 9.68939e-28
6068 203 0.0015 -0.400126 -1.88459 0 -4.42946e-13 6.17375e-14 0 2.48474e-20 1.86919e-28
6067 203 0.0015 -0.398309 -1.88545 0 -4.2874e-13 -2.15972e-13 0 0 2.44006e-29
6033 202 0.0015 -0.323025 -1.88564 0 -2.33959e-13 3.85439e-13 0 0 3.70781e-28
7983 267 0.0015 -0.199527 -1.8846 0 5.18701e-13 2.36846e-13 0 3.01377e-20 5.89593e-29
7982 267 0.0015 -0.197202 -1.88548 0 -4.95872e-13 -6.48198e-14 0 2.00918e-20 7.36865e-29
10327 345 0.0015 -0.0645802 -1.88463 0 -3.95605e-14 -1.34745e-13 0 3.92872e-20 3.06725e-28
10265 343 0.0015 0.420568 -1.88507 0 5.01466e-16 -8.80895e-14 0 1.24237e-20 1.60815e-28
1476 50 0.0015 0.567996 -1.88596 0 -2.73647e-13 3.46911e-14 0 6.81478e-21 3.67306e-28
3536 118 0.0015 0.648126 -1.88476 0 1.05007e-12 7.3557e-13 0 3.14298e-20 7.24917e-28
2645 89 0.0015 -0.585795 -1.88349 0 4.523e-13 -3.79218e-13 0 0 3.26091e-28
6071 203 0.0015 -0.405575 -1.882 0 -7.92113e-13 -1.9115e-14 0 0 1.42181e-28
6070 203 0.0015 -0.403759 -1.88287 0 1.92962e-13 -4.51554e-13 0 2.48474e-20 5.46823e-29
6069 203 0.0015 -0.401942 -1.88373 0 7.73009e-13 4.59465e-13 0 2.48474e-20 1.78711e-28
7985 267 0.0015 -0.204179 -1.88284 0 5.71883e-13 -1.00197e-12 0 2.00918e-20 2.8092e-28
7984 267 0.0015 -0.201853 -1.88372 0 -7.50765e-13 1.89732e-13 0 2.00918e-20 2.29534e-28
1954 66 0.0015 0.0141981 -1.88304 0 -3.08719e-14 2.90768e-13 0 1.04021e-20 9.70512e-29
6002 201 0.0015 0.493952 -1.88275 0 1.97698e-13 4.90608e-13 0 0 3.60505e-28
1477 50 0.0015 0.570222 -1.88304 0 -3.8695e-13 -8.81153e-13 0 6.81478e-21 4.73351e-28
3535 118 0.0015 0.650663 -1.88285 0 -1.34009e-12 -1.02159e-12 0 3.14298e-20 1.33009e-27
2646 89 0.0015 -0.589516 -1.88064 0 -6.78489e-13 4.65292e-13 0 0 4.56151e-28
6073 203 0.0015 -0.409209 -1.88028 0 -1.4996e-12 -2.53718e-13 0 2.48474e-20 4.56616e-28
6072 203 0.0015 -0.407392 -1.88114 0 1.05763e-12 1.76236e-13 0 2.48474e-20 2.17977e-28
7988 267 0.0015 -0.211156 -1.8802 0 -4.21832e-13 5.1321e-13 0 1.00459e-20 1.30909e-28
7987 267 0.0015 -0.208831 -1.88108 0 -6.81402e-14 -1.10317e-12 0 2.00918e-20 3.71754e-29
7986 267 0.0015 -0.206505 -1.88196 0 -3.33025e-14 1.37312e-12 0 2.00918e-20 1.09406e-28
8011 268 0.0015 -0.176367 -1.88159 0 -3.93771e-14 -1.0651e-13 0 1.90242e-21 4.70288e-29
10328 345 0.0015 -0.065257 -1.88152 0 -2.0576e-13 8.99323e-13 0 2.35723e-20 3.76049e-28
8044 269 0.0015 0.1534 -1.88043 0 -1.5386e-14 1.71587e-13 0 0 1.51959e-28
10266 343 0.0015 0.421289 -1.88111 0 7.45672e-14 4.58594e-13 0 2.48474e-20 1.3336e-28
1478 50 0.0015 0.572449 -1.88013 0 5.66507e-13 7.16368e-13 0 6.81478e-21 4.58292e-28
3534 118 0.0015 0.653201 -1.88093 0 1.1972e-12 1.02322e-12 0 4.71447e-20 1.21464e-27
10292 344 0.0015 -0.465124 -1.8785 0 1.0654e-12 -8.91814e-13 0 0 6.82796e-28
10291 344 0.0015 -0.4623 -1.87941 0 -5.45303e-13 3.66253e-13 0 0 3.2828e-28
6074 203 0.0015 -0.411025 -1.87942 0 1.26543e-12 4.0328e-13 0 4.96948e-20 3.51417e-28
6075 203 0.0015 -0.412842 -1.87856 0 -2.39199e-13 -1.31805e-13 0 4.96948e-20 2.42979e-29
7990 267 0.0015 -0.215808 -1.87844 0 -8.6919e-13 -1.01637e-13 0 0 2.14761e-28
7989 267 0.0015 -0.213482 -1.87932 0 9.2818e-13 4.40864e-14 0 0 2.52195e-28
10329 345 0.0015 -0.0659339 -1.87841 0 2.67023e-13 -9.84876e-13 0 0 4.65145e-28
1955 66 0.0015 0.0137179 -1.87827 0 2.4144e-14 -2.1123e-13 0 5.20104e-21 4.83387e-29
10201 341 0.0015 0.290108 -1.87875 0 -6.7217e-14 5.62331e-13 0 0 6.03579e-28
3533 118 0.0015 0.655738 -1.87902 0 -3.70005e-13 -6.20191e-13 0 3.14298e-20 2.59404e-28
2647 89 0.0015 -0.593237 -1.87778 0 4.81593e-13 -3.01668e-13 0 0 2.14573e-28
10294 344 0.0015 -0.470773 -1.87669 0 -1.98488e-13 -2.72853e-13 0 3.36849e-20 2.74378e-28
10293 344 0.0015 -0.467948 -1.87759 0 -7.83293e-13 8.56588e-13 0 1.68424e-20 4.56522e-28
6077 203 0.0015 -0.416475 -1.87683 0 2.0218e-12 6.88108e-13 0 2.48474e-20 1.51886e-27
6076 203 0.0015 -0.414658 -1.87769 0 -2.3774e-13 -6.62463e-13 0 4.96948e-20 8.27215e-30
6034 202 0.0015 -0.327828 -1.87791 0 -3.43047e-14 3.82488e-14 0 0 5.45779e-29
7992 267 0.0015 -0.22046 -1.87668 0 -7.64317e-13 5.37233e-13 0 0 2.9286e-28
7991 267 0.0015 -0.218134 -1.87756 0 6.19704e-13 -3.07215e-13 0 0 1.64348e-28
10267 343 0.0015 0.42201 -1.87716 0 -1.68521e-13 -1.0581e-12 0 3.72711e-20 9.61937e-28
1479 50 0.0015 0.574675 -1.87722 0 -2.4874e-13 3.96533e-14 0 0 1.53616e-28
3532 118 0.0015 0.658275 -1.8771 0 3.12005e-13 7.2314e-13 0 1.57149e-20 2.74098e-28
2648 89 0.0015 -0.596958 -1.87493 0 -2.02543e-13 1.39851e-13 0 5.32605e-21 7.1817e-29
10296 344 0.0015 -0.476421 -1.87487 0 -2.20587e-13 3.8323e-13 0 1.68424e-20 1.14046e-28
10295 344 0.0015 -0.473597 -1.87578 0 7.84501e-13 -2.61737e-13 0 3.36849e-20 2.84938e-28
6080 203 0.0015 -0.421925 -1.87425 0 2.75198e-13 3.11328e-13 0 2.48474e-20 2.75994e-29
6079 203 0.0015 -0.420108 -1.87511 0 1.584e-12 -7.09864e-14 0 2.48474e-20 1.057e-27
6078 203 0.0015 -0.418291 -1.87597 0 -3.42595e-12 -1.8034e-13 0 2.48474e-20 2.56429e-27
7995 267 0.0015 -0.227437 -1.87404 0 -5.36573e-14 -2.79338e-13 0 0 3.36403e-29
7994 267 0.0015 -0.225111 -1.87492 0 6.77408e-14 4.6452e-14 0 0 1.63839e-29
7993 267 0.0015 -0.222785 -1.8758 0 5.55648e-13 -2.85461e-13 0 0 2.04498e-28
10330 345 0.0015 -0.0666107 -1.87531 0 -2.56097e-13 1.01844e-12 0 0 4.90095e-28
6003 201 0.0015 0.496967 -1.87498 0 -1.00969e-13 -2.18856e-13 0 0 3.18864e-28
1480 50 0.0015 0.576901 -1.87431 0 9.52563e-14 -3.79359e-13 0 0 4.5434e-29
3531 118 0.0015 0.660812 -1.87519 0 -1.0268e-12 -1.04316e-12 0 1.57149e-20 9.8736e-28
2649 89 0.0015 -0.600679 -1.87207 0 6.29272e-14 -1.0718e-13 0 5.32605e-21 1.42197e-29
10299 344 0.0015 -0.484893 -1.87215 0 -4.99697e-13 6.15282e-13 0 1.68424e-20 1.86442e-28
10298 344 0.0015 -0.482069 -1.87306 0 1.81656e-13 -2.27832e-13 0 1.68424e-20 6.46592e-29
10297 344 0.0015 -0.479245 -1.87396 0 -7.99706e-14 -2.25673e-13 0 0 2.50381e-30
6082 203 0.0015 -0.425558 -1.87252 0 7.04732e-13 -1.97285e-12 0 4.96948e-20 6.16062e-28
6081 203 0.0015 -0.423741 -1.87338 0 -7.81929e-13 4.46969e-13 0 2.48474e-20 2.92343e-28
7997 267 0.0015 -0.232089 -1.87228 0 -4.2485e-13 -6.26615e-14 0 0 4.89596e-29
7996 267 0.0015 -0.229763 -1.87316 0 1.62339e-13 3.58225e-13 0 0 5.06294e-29
10331 345 0.0015 -0.0672875 -1.8722 0 1.05359e-13 -5.07212e-13 0 1.57149e-20 2.04102e-28
1956 66 0.0015 0.0132378 -1.87349 0 -1.58162e-15 1.96348e-15 0 0 9.41161e-29
8045 269 0.0015 0.152704 -1.87369 0 3.77311e-14 -3.58438e-13 0 0 1.51021e-28
10202 341 0.0015 0.289307 -1.87202 0 1.06432e-13 -8.56701e-13 0 0 7.69506e-28
4531 152 0.0015 0.366216 -1.8733 0 -6.62796e-15 2.61359e-14 0 0 1.74636e-30
10268 343 0.0015 0.422731 -1.8732 0 3.08229e-13 1.71714e-12 0 2.48474e-20 1.70387e-27
3530 118 0.0015 0.66335 -1.87327 0 1.17804e-12 8.78654e-13 0 3.14298e-20 1.00828e-27
10301 344 0.0015 -0.490541 -1.87033 0 -1.8552e-13 6.05435e-13 0 3.36849e-20 7.50461e-29
10300 344 0.0015 -0.487717 -1.87124 0 5.07016e-13 -6.45422e-13 0 3.36849e-20 1.9407e-28
6084 203 0.0015 -0.429191 -1.8708 0 -2.45433e-12 4.19937e-13 0 4.96948e-20 2.37216e-27
6083 203 0.0015 -0.427374 -1.87166 0 4.38712e-13 1.90026e-12 0 7.45423e-20 4.23382e-28
6035 202 0.0015 -0.332631 -1.87017 0 4.53347e-14 -7.33919e-14 0 0 4.41822e-29
7999 267 0.0015 -0.23674 -1.87052 0 4.8599e-13 -4.4781e-13 0 0 1.33319e-28
7998 267 0.0015 -0.234415 -1.8714 0 -5.57677e-14 9.03329e-14 0 0 6.54918e-29
1481 50 0.0015 0.579128 -1.8714 0 -5.05718e-13 -2.56059e-13 0 0 3.04611e-28
3529 118 0.0015 0.665887 -1.87136 0 -1.84003e-13 -1.7338e-13 0 3.14298e-20 3.59341e-28
2650 89 0.0015 -0.6044 -1.86922 0 -3.23045e-13 3.47814e-13 0 5.32605e-21 1.86831e-28
10303 344 0.0015 -0.49619 -1.86852 0 1.94424e-13 1.62961e-13 0 1.68424e-20 3.01384e-29
10302 344 0.0015 -0.493366 -1.86943 0 -2.70158e-13 -4.58242e-13 0 3.36849e-20 3.19053e-29
6087 203 0.0015 -0.434641 -1.86821 0 1.87857e-12 -1.51708e-12 0 0 1.68261e-27
6085 203 0.0015 -0.431008 -1.86994 0 2.37665e-12 -2.06811e-12 0 2.48474e-20 2.8613e-27
6086 203 0.0015 -0.432824 -1.86908 0 -1.12881e-12 1.87009e-12 0 0 9.36688e-28
8001 267 0.0015 -0.241392 -1.86876 0 -1.01333e-13 2.45673e-14 0 0 1.05505e-28
8000 267 0.0015 -0.239066 -1.86964 0 -4.15523e-13 5.32398e-13 0 0 1.21515e-28
8012 268 0.0015 -0.171924 -1.86923 0 2.61922e-14 6.29842e-14 0 3.80484e-21 5.45534e-29
10332 345 0.0015 -0.0679644 -1.86909 0 1.90979e-13 -6.59739e-13 0 1.57149e-20 4.64372e-28
1957 66 0.0015 0.0127576 -1.86871 0 -8.43412e-14 7.93574e-13 0 0 5.45054e-28
10269 343 0.0015 0.423451 -1.86924 0 -2.61589e-13 -1.15204e-12 0 1.24237e-20 9.06419e-28
1482 50 0.0015 0.581354 -1.86848 0 5.75894e-13 7.52622e-13 0 0 4.67778e-28
3528 118 0.0015 0.668424 -1.86944 0 -1.10469e-13 2.13217e-13 0 1.57149e-20 1.9036e-28
2651 89 0.0015 -0.608121 -1.86636 0 7.79056e-13 -6.73804e-13 0 0 7.47346e-28
10305 344 0.0015 -0.501838 -1.8667 0 -3.46089e-13 -4.1763e-13 0 0 3.62066e-29
10304 344 0.0015 -0.499014 -1.86761 0 3.06824e-13 1.08278e-13 0 0 3.81738e-29
6089 203 0.0015 -0.438274 -1.86649 0 -6.91933e-15 -2.44248e-13 0 0 1.09471e-29
6088 203 0.0015 -0.436457 -1.86735 0 -1.42716e-12 8.81942e-13 0 0 1.32172e-27
8004 267 0.0015 -0.248369 -1.86612 0 -2.48191e-13 -8.06971e-13 0 0 2.04124e-28
8003 267 0.0015 -0.246044 -1.867 0 -5.9137e-13 1.16421e-12 0 0 3.28864e-28
8002 267 0.0015 -0.243718 -1.86788 0 6.42205e-13 -7.84089e-13 0 0 2.84815e-28
8046 269 0.0015 0.152008 -1.86695 0 -3.43473e-14 3.2543e-13 0 0 1.19662e-28
6004 201 0.0015 0.499982 -1.86721 0 -6.11241e-14 -2.07998e-13 0 0 5.41228e-29
3527 118 0.0015 0.670962 -1.86752 0 -3.08219e-13 -6.84764e-13 0 0 1.92103e-28
10307 344 0.0015 -0.507486 -1.86489 0 -5.48791e-13 -4.0393e-13 0 0 9.40494e-29
10306 344 0.0015 -0.504662 -1.8658 0 5.26609e-13 5.82549e-13 0 0 9.02859e-29
6090 203 0.0015 -0.440091 -1.86563 0 8.18577e-14 8.70806e-14 0 0 7.51805e-31
8006 267 0.0015 -0.253021 -1.86436 0 1.08732e-13 -8.15725e-14 0 0 1.2213e-28
8005 267 0.0015 -0.250695 -1.86524 0 6.70497e-13 1.28732e-13 0 0 1.22825e-28
10333 345 0.0015 -0.0686412 -1.86599 0 -3.92631e-13 1.48523e-12 0 1.57149e-20 1.0434e-27
10203 341 0.0015 0.288506 -1.8653 0 2.90687e-15 -1.20903e-13 0 0 4.93708e-28
4532 152 0.0015 0.364868 -1.86469 0 4.2799e-14 -2.21372e-13 0 0 9.72048e-29
10270 343 0.0015 0.424172 -1.86529 0 2.01041e-13 6.66035e-13 0 0 2.66936e-28
1483 50 0.0015 0.58358 -1.86557 0 -1.0672e-13 -4.38058e-13 0 0 1.64554e-28
3526 118 0.0015 0.673499 -1.86561 0 -4.21907e-13 8.36535e-14 0 0 4.00059e-28
2652 89 0.0015 -0.611842 -1.86351 0 -7.809e-13 5.93475e-13 0 0 7.05267e-28
10310 344 0.0015 -0.515959 -1.86217 0 -1.42943e-12 -5.76307e-13 0 0 5.80344e-28
10309 344 0.0015 -0.513134 -1.86307 0 1.43786e-12 4.00811e-13 0 0 6.40019e-28
10308 344 0.0015 -0.51031 -1.86398 0 -5.69108e-13 2.54843e-14 0 0 3.18147e-28
6036 202 0.0015 -0.337434 -1.86244 0 2.13388e-14 -2.22776e-14 0 2.74394e-21 4.23638e-30
8008 267 0.0015 -0.257673 -1.8626 0 4.2941e-13 -8.73784e-13 0 1.00459e-20 1.83074e-28
8007 267 0.0015 -0.255347 -1.86348 0 -4.81293e-13 5.13363e-13 0 1.00459e-20 1.40007e-28
10334 345 0.0015 -0.0693181 -1.86288 0 5.75806e-15 3.49285e-13 0 1.57149e-20 1.74977e-27
1958 66 0.0015 0.0122775 -1.86393 0 1.53675e-13 -1.42287e-12 0 5.20104e-21 1.39519e-27
1484 50 0.0015 0.585807 -1.86266 0 1.79481e-13 3.79078e-13 0 0 1.62383e-28
3525 118 0.0015 0.676036 -1.86369 0 4.21907e-13 -8.36535e-14 0 0 4.00059e-28
2653 89 0.0015 -0.615563 -1.86065 0 2.66415e-13 -8.74949e-14 0 5.32605e-21 1.34235e-28
10312 344 0.0015 -0.521607 -1.86035 0 4.14979e-13 -5.65412e-14 0 1.68424e-20 8.71534e-29
10311 344 0.0015 -0.518783 -1.86126 0 6.15569e-13 4.3958e-13 0 0 2.6363e-28
8010 267 0.0015 -0.262324 -1.86085 0 2.05617e-13 -2.32426e-13 0 0 5.20594e-29
8009 267 0.0015 -0.259998 -1.86172 0 -4.80051e-13 7.3459e-13 0 1.00459e-20 1.82357e-28
8047 269 0.0015 0.151313 -1.86021 0 4.52015e-14 -4.40382e-13 0 3.6872e-21 1.85054e-28
10271 343 0.0015 0.424893 -1.86133 0 -1.10734e-13 -2.03583e-13 0 0 1.46081e-28
3524 118 0.0015 0.678573 -1.86178 0 3.08219e-13 6.84764e-13 0 0 1.92103e-28
10314 344 0.0015 -0.527255 -1.85854 0 -8.20307e-13 4.7174e-13 0 1.68424e-20 4.5475e-28
10313 344 0.0015 -0.524431 -1.85944 0 -2.05035e-13 -3.30225e-13 0 1.68424e-20 1.15854e-28
10335 345 0.0015 -0.0699949 -1.85978 0 2.19657e-13 -1.50821e-12 0 1.57149e-20 1.29009e-27
1959 66 0.0015 0.0117974 -1.85915 0 -9.72513e-14 8.41781e-13 0 5.20104e-21 8.97672e-28
4771 160 0.0015 0.0785585 -1.85825 0 -9.32643e-15 3.24125e-13 0 0 2.68734e-28
10204 341 0.0015 0.287705 -1.85857 0 -7.48135e-14 7.44068e-13 0 0 5.33154e-28
6005 201 0.0015 0.502997 -1.85945 0 -8.8776e-14 -1.85805e-13 0 0 2.44716e-28
1485 50 0.0015 0.588033 -1.85975 0 -7.59215e-13 -8.47971e-13 0 0 7.13178e-28
3523 118 0.0015 0.681111 -1.85986 0 1.10469e-13 -2.13217e-13 0 1.57149e-20 1.9036e-28
2654 89 0.0015 -0.619284 -1.8578 0 1.7955e-14 -1.95885e-13 0 1.06521e-20 1.21658e-29
10316 344 0.0015 -0.532903 -1.85672 0 6.65283e-13 -4.86872e-14 0 1.68424e-20 1.86215e-28
10315 344 0.0015 -0.530079 -1.85763 0 4.13981e-13 -2.68682e-13 0 1.68424e-20 4.62636e-28
8013 268 0.0015 -0.167482 -1.85688 0 5.26656e-14 1.59095e-13 0 3.80484e-21 6.1912e-29
10336 345 0.0015 -0.0706718 -1.85667 0 1.94678e-13 -3.79785e-13 0 3.14298e-20 6.60969e-28
4533 152 0.0015 0.36352 -1.85607 0 -5.35289e-14 2.75302e-13 0 0 1.11668e-28
10272 343 0.0015 0.425614 -1.85738 0 2.92959e-14 -1.47405e-13 0 0 1.66894e-29
1486 50 0.0015 0.59026 -1.85684 0 7.59215e-13 8.47971e-13 0 0 7.13178e-28
3522 118 0.0015 0.683648 -1.85795 0 1.84003e-13 1.7338e-13 0 3.14298e-20 3.59341e-28
3521 118 0.0015 0.686185 -1.85603 0 -1.17804e-12 -8.78654e-13 0 3.14298e-20 1.00828e-27
2655 89 0.0015 -0.623004 -1.85494 0 -9.59299e-14 2.27394e-13 0 1.59781e-20 3.17281e-29
10318 344 0.0015 -0.538552 -1.85491 0 -4.024e-13 -3.94732e-14 0 1.68424e-20 9.59831e-29
10317 344 0.0015 -0.535727 -1.85581 0 -6.41011e-14 4.00825e-14 0 3.36849e-20 2.3584e-28
6037 202 0.0015 -0.342237 -1.85471 0 1.25845e-13 -1.98219e-13 0 5.48788e-21 1.28453e-28
1960 66 0.0015 0.0113172 -1.85437 0 3.86502e-14 -2.98308e-13 0 5.20104e-21 1.00597e-28
3520 118 0.0015 0.688722 -1.85412 0 1.0268e-12 1.04316e-12 0 1.57149e-20 9.8736e-28
2656 89 0.0015 -0.626725 -1.85209 0 2.00122e-13 -2.37589e-13 0 1.06521e-20 6.0868e-29
10320 344 0.0015 -0.5442 -1.85309 0 -3.09139e-13 8.91803e-14 0 0 8.52133e-29
10319 344 0.0015 -0.541376 -1.854 0 3.63309e-13 -2.24056e-14 0 1.68424e-20 8.60147e-29
10337 345 0.0015 -0.0713486 -1.85356 0 -2.11403e-13 5.99257e-13 0 3.14298e-20 5.60592e-28
8048 269 0.0015 0.150617 -1.85348 0 2.4551e-14 -2.34586e-13 0 3.6872e-21 4.52701e-28
10273 343 0.0015 0.426335 -1.85342 0 -5.46981e-14 -1.68608e-13 0 1.24237e-20 4.27504e-29
1487 50 0.0015 0.592486 -1.85392 0 -1.79481e-13 -3.79078e-13 0 0 1.62383e-28
3519 118 0.0015 0.69126 -1.8522 0 -3.12005e-13 -7.2314e-13 0 1.57149e-20 2.74098e-28
10338 345 0.0015 -0.0720254 -1.85046 0 -8.1936e-15 2.88495e-13 0 3.14298e-20 3.56849e-29
10205 341 0.0015 0.286904 -1.85184 0 3.34032e-14 -3.62822e-13 0 0 2.07532e-28
6006 201 0.0015 0.506013 -1.85168 0 1.86294e-13 4.55845e-13 0 0 2.98491e-28
1488 50 0.0015 0.594712 -1.85101 0 1.0672e-13 4.38058e-13 0 0 1.64554e-28
3518 118 0.0015 0.693797 -1.85028 0 3.70005e-13 6.20191e-13 0 3.14298e-20 2.59404e-28
2657 89 0.0015 -0.630446 -1.84923 0 -3.13048e-13 2.65963e-13 0 5.32605e-21 1.12816e-28
1961 66 0.0015 0.0108371 -1.84959 0 -1.32679e-13 1.33153e-12 0 0 1.61255e-27
4772 160 0.0015 0.0782973 -1.84905 0 8.29136e-15 -2.82905e-13 0 0 2.73079e-28
10274 343 0.0015 0.427056 -1.84946 0 1.19222e-13 7.30444e-13 0 2.48474e-20 3.74481e-28
1489 50 0.0015 0.596939 -1.8481 0 -5.75894e-13 -7.52622e-13 0 0 4.67778e-28
3517 118 0.0015 0.696334 -1.84837 0 -1.1972e-12 -1.02322e-12 0 4.71447e-20 1.21464e-27
2658 89 0.0015 -0.634167 -1.84638 0 1.62154e-13 -1.08839e-13 0 0 7.76962e-29
6038 202 0.0015 -0.34704 -1.84697 0 -1.35868e-13 1.95427e-13 0 8.23182e-21 1.28616e-28
10339 345 0.0015 -0.0727023 -1.84735 0 -7.10977e-14 1.46226e-13 0 3.14298e-20 8.96454e-29
8049 269 0.0015 0.149922 -1.84674 0 -9.61236e-14 9.17012e-13 0 3.6872e-21 8.01014e-28
6541 219 0.0015 0.213251 -1.84656 0 4.415e-14 -5.70635e-13 0 3.51396e-21 6.46838e-28
4534 152 0.0015 0.362172 -1.84745 0 7.99241e-16 4.28775e-14 0 0 5.3485e-29
3516 118 0.0015 0.698871 -1.84645 0 1.34009e-12 1.02159e-12 0 3.14298e-20 1.33009e-27
8014 268 0.0015 -0.163039 -1.84452 0 -5.58213e-14 -1.63647e-13 0 1.90242e-21 6.37892e-29
10340 345 0.0015 -0.0733791 -1.84424 0 1.30289e-13 -5.14668e-13 0 1.57149e-20 1.25398e-28
1962 66 0.0015 0.010357 -1.84481 0 1.37593e-13 -1.44604e-12 0 0 1.71344e-27
10206 341 0.0015 0.286103 -1.84511 0 4.14698e-15 -3.16484e-14 0 0 1.03059e-29
10275 343 0.0015 0.427777 -1.84551 0 -1.55337e-13 -1.05813e-12 0 3.72711e-20 6.38313e-28
1490 50 0.0015 0.599165 -1.84519 0 5.05718e-13 2.56059e-13 0 0 3.04611e-28
3515 118 0.0015 0.701409 -1.84454 0 -1.05007e-12 -7.3557e-13 0 3.14298e-20 7.24917e-28
2659 89 0.0015 -0.637888 -1.84352 0 -2.93708e-14 -1.65044e-15 0 0 8.57031e-30
6007 201 0.0015 0.509028 -1.84391 0 -1.10629e-13 -2.86856e-13 0 0 1.1364e-28
1491 50 0.0015 0.601391 -1.84228 0 -9.52563e-14 3.79359e-13 0 0 4.5434e-29
3514 118 0.0015 0.703946 -1.84262 0 1.19299e-12 8.6064e-13 0 1.57149e-20 9.68939e-28
2660 89 0.0015 -0.641609 -1.84066 0 4.33768e-13 -3.60441e-13 0 5.32605e-21 3.26635e-28
10341 345 0.0015 -0.074056 -1.84114 0 1.88027e-14 -5.31906e-15 0 1.57149e-20 1.0626e-28
1963 66 0.0015 0.00987681 -1.84004 0 3.43093e-14 -3.33887e-13 0 0 8.98385e-28
10276 343 0.0015 0.428498 -1.84155 0 1.55337e-13 1.05813e-12 0 3.72711e-20 6.38313e-28
3513 118 0.0015 0.706483 -1.84071 0 -6.32335e-13 -3.73138e-13 0 1.57149e-20 6.07566e-28
6039 202 0.0015 -0.351842 -1.83924 0 1.06552e-13 -1.53875e-13 0 8.23182e-21 7.73212e-29
10342 345 0.0015 -0.0747328 -1.83803 0 -1.65121e-13 6.05982e-13 0 0 1.80906e-28
4773 160 0.0015 0.0780361 -1.83985 0 1.09159e-14 -3.90791e-13 0 0 3.16922e-28
8050 269 0.0015 0.149226 -1.84 0 5.73195e-14 -5.35738e-13 0 0 4.36863e-28
6542 219 0.0015 0.21269 -1.83947 0 -5.40067e-14 7.25502e-13 0 3.51396e-21 6.94379e-28
10207 341 0.0015 0.285302 -1.83839 0 -4.94698e-14 4.78913e-13 0 0 3.33218e-28
4535 152 0.0015 0.360823 -1.83883 0 8.41057e-15 -7.76642e-14 0 0 4.24014e-29
1492 50 0.0015 0.603618 -1.83936 0 2.4874e-13 -3.96533e-14 0 0 1.53616e-28
3512 118 0.0015 0.70902 -1.83879 0 -5.03369e-14 -2.52599e-13 0 0 1.63474e-29
2661 89 0.0015 -0.64533 -1.83781 0 -1.00858e-12 8.26634e-13 0 1.06521e-20 1.16966e-27
10277 343 0.0015 0.429219 -1.8376 0 -1.19222e-13 -7.30444e-13 0 2.48474e-20 3.74481e-28
6008 201 0.0015 0.512043 -1.83614 0 1.91185e-14 7.67908e-14 0 0 3.99664e-29
1493 50 0.0015 0.605844 -1.83645 0 -5.66507e-13 -7.16368e-13 0 6.81478e-21 4.58292e-28
3511 118 0.0015 0.711558 -1.83688 0 2.47183e-14 1.29651e-13 0 0 8.45528e-30
2662 89 0.0015 -0.649051 -1.83495 0 9.58301e-13 -6.9123e-13 0 1.59781e-20 1.031e-27
10343 345 0.0015 -0.0754097 -1.83493 0 1.90115e-13 -1.00125e-12 0 0 4.89043e-28
1964 66 0.0015 0.00939668 -1.83526 0 -1.07514e-13 1.15471e-12 0 0 9.5199e-28
2663 89 0.0015 -0.652772 -1.8321 0 -2.1895e-13 3.01852e-14 0 1.06521e-20 2.25097e-28
10171 340 0.0015 -0.234195 -1.83312 0 1.41972e-13 -1.99478e-13 0 0 1.30179e-28
8015 268 0.0015 -0.158597 -1.83216 0 4.17201e-14 1.18553e-13 0 0 2.98681e-29
8051 269 0.0015 0.14853 -1.83326 0 2.52132e-15 -2.96293e-14 0 0 2.24015e-29
6543 219 0.0015 0.212128 -1.83239 0 -1.54799e-14 1.47372e-13 0 3.51396e-21 2.29191e-28
10278 343 0.0015 0.429939 -1.83364 0 5.46981e-14 1.68608e-13 0 1.24237e-20 4.27504e-29
1494 50 0.0015 0.60807 -1.83354 0 3.8695e-13 8.81153e-13 0 6.81478e-21 4.73351e-28
6040 202 0.0015 -0.356645 -1.83151 0 -3.12045e-13 5.09953e-13 0 8.23182e-21 5.30309e-28
10344 345 0.0015 -0.0760865 -1.83182 0 -1.04834e-13 9.86773e-13 0 1.57149e-20 4.6844e-28
1965 66 0.0015 0.00891654 -1.83048 0 7.21836e-14 -7.86301e-13 0 0 4.20497e-28
4774 160 0.0015 0.0777749 -1.83066 0 -1.69991e-14 6.08067e-13 0 2.71488e-21 4.83488e-28
10208 341 0.0015 0.284501 -1.83166 0 -5.12517e-15 9.02302e-15 0 3.6872e-21 6.65277e-28
4536 152 0.0015 0.359475 -1.83021 0 3.45109e-14 -2.07992e-13 0 0 7.09635e-29
1495 50 0.0015 0.610297 -1.83063 0 2.73647e-13 -3.46911e-14 0 6.81478e-21 3.67306e-28
2664 89 0.0015 -0.656493 -1.82924 0 -3.5573e-13 4.16496e-13 0 1.06521e-20 2.06316e-28
10345 345 0.0015 -0.0767633 -1.82871 0 -2.36203e-13 5.02407e-13 0 1.57149e-20 7.9887e-28
10279 343 0.0015 0.43066 -1.82968 0 -2.92959e-14 1.47405e-13 0 0 1.66894e-29
6009 201 0.0015 0.515058 -1.82837 0 4.16754e-14 6.54143e-14 0 5.99535e-21 6.9191e-30
2665 89 0.0015 -0.660213 -1.82639 0 2.25566e-13 -3.10249e-13 0 1.06521e-20 1.63528e-28
10172 340 0.0015 -0.238704 -1.82673 0 -1.79382e-13 2.47137e-13 0 0 1.3813e-28
8052 269 0.0015 0.147835 -1.82652 0 -1.53865e-14 1.49002e-13 0 0 2.2037e-29
1496 50 0.0015 0.612523 -1.82772 0 -5.75251e-13 -6.98444e-13 0 0 4.18936e-28
10346 345 0.0015 -0.0774402 -1.82561 0 3.7258e-13 -1.18049e-12 0 1.57149e-20 7.99695e-28
1966 66 0.0015 0.0084364 -1.8257 0 -1.08516e-13 1.08175e-12 0 0 8.85185e-28
6544 219 0.0015 0.211567 -1.8253 0 3.06996e-14 -3.65596e-13 0 0 1.89632e-28
10209 341 0.0015 0.2837 -1.82493 0 7.27931e-14 -6.35815e-13 0 1.47488e-20 4.27016e-28
10280 343 0.0015 0.431381 -1.82573 0 1.10734e-13 2.03583e-13 0 0 1.46081e-28
1497 50 0.0015 0.614749 -1.8248 0 -4.05698e-13 -4.53017e-13 0 0 1.24009e-27
2666 89 0.0015 -0.663934 -1.82353 0 1.28245e-13 -1.55213e-14 0 1.06521e-20 2.06038e-29
6041 202 0.0015 -0.361448 -1.82377 0 3.42798e-13 -5.78467e-13 0 5.48788e-21 6.09973e-28
10347 345 0.0015 -0.078117 -1.8225 0 -2.13133e-13 5.07445e-13 0 0 1.39487e-28
2667 89 0.0015 -0.667655 -1.82068 0 6.30347e-13 -4.44915e-13 0 5.32605e-21 1.06614e-27
10173 340 0.0015 -0.243212 -1.82034 0 4.20117e-14 -4.31873e-14 0 0 7.95359e-30
1967 66 0.0015 0.00795626 -1.82092 0 7.8266e-14 -7.52868e-13 0 5.20104e-21 7.19468e-28
4775 160 0.0015 0.0775136 -1.82146 0 8.58432e-15 -3.25169e-13 0 5.42976e-21 1.82277e-28
4537 152 0.0015 0.358127 -1.82159 0 -6.91378e-14 4.23937e-13 0 0 2.35617e-28
10281 343 0.0015 0.432102 -1.82177 0 -2.01041e-13 -6.66035e-13 0 0 2.66936e-28
6010 201 0.0015 0.518074 -1.8206 0 -9.05765e-15 2.18027e-14 0 1.19907e-20 7.6056e-30
1498 50 0.0015 0.616976 -1.82189 0 8.36885e-13 1.2538e-12 0 6.81478e-21 1.30066e-27
8016 268 0.0015 -0.154154 -1.81981 0 -4.69129e-14 -1.28058e-13 0 0 3.42491e-29
10348 345 0.0015 -0.0787939 -1.81939 0 4.18078e-13 -1.65962e-12 0 1.57149e-20 2.06273e-27
8053 269 0.0015 0.147139 -1.81978 0 7.80466e-16 -2.67975e-14 0 0 8.588e-30
6545 219 0.0015 0.211005 -1.81821 0 1.11569e-14 -1.67215e-13 0 0 1.13492e-28
10210 341 0.0015 0.282899 -1.8182 0 2.89172e-14 -2.39544e-13 0 1.8436e-20 4.78228e-28
1499 50 0.0015 0.619202 -1.81898 0 2.96924e-13 1.15978e-13 0 6.81478e-21 8.16536e-28
2668 89 0.0015 -0.671376 -1.81782 0 -1.62824e-12 1.14003e-12 0 0 2.59322e-27
6042 202 0.0015 -0.366251 -1.81604 0 -9.61424e-14 1.75476e-13 0 2.74394e-21 1.62672e-28
10349 345 0.0015 -0.0794707 -1.81629 0 -3.37187e-13 1.50195e-12 0 1.57149e-20 2.02973e-27
1968 66 0.0015 0.00747613 -1.81614 0 -7.86417e-14 7.9007e-13 0 5.20104e-21 7.93877e-28
10282 343 0.0015 0.432823 -1.81781 0 2.61589e-13 1.15204e-12 0 1.24237e-20 9.06419e-28
1500 50 0.0015 0.621428 -1.81607 0 -5.09958e-13 -5.60019e-13 0 6.81478e-21 5.79838e-28
2669 89 0.0015 -0.675097 -1.81497 0 1.3532e-12 -9.56038e-13 0 0 1.9644e-27
5941 199 0.0015 0.740778 -1.81551 0 -1.99392e-14 -8.09588e-14 0 0 1.855e-29
2670 89 0.0015 -0.678818 -1.81211 0 -4.60687e-13 3.28923e-13 0 0 4.16963e-28
10174 340 0.0015 -0.24772 -1.81396 0 -2.40873e-14 1.1352e-14 0 0 1.2702e-30
10350 345 0.0015 -0.0801475 -1.81318 0 3.41212e-15 -2.32451e-14 0 1.57149e-20 4.856e-31
4776 160 0.0015 0.0772524 -1.81226 0 -3.22475e-15 1.29601e-13 0 8.14464e-21 2.1494e-29
8054 269 0.0015 0.146443 -1.81304 0 8.3294e-15 -3.7018e-14 0 0 2.03754e-30
4538 152 0.0015 0.356779 -1.81297 0 7.32538e-14 -4.52459e-13 0 0 2.60647e-28
10283 343 0.0015 0.433544 -1.81386 0 -3.08229e-13 -1.71714e-12 0 2.48474e-20 1.70387e-27
6011 201 0.0015 0.521089 -1.81283 0 -6.79992e-14 -2.16982e-13 0 1.19907e-20 7.93155e-29
1969 66 0.0015 0.00699599 -1.81136 0 2.03225e-13 -2.03355e-12 0 1.04021e-20 2.95392e-27
6546 219 0.0015 0.210443 -1.81113 0 -3.32491e-14 4.70595e-13 0 0 2.19816e-28
10211 341 0.0015 0.282098 -1.81148 0 -5.48331e-14 5.13792e-13 0 1.47488e-20 3.98329e-28
6043 202 0.0015 -0.371054 -1.8083 0 -1.9378e-14 3.19775e-14 0 0 6.42745e-30
10284 343 0.0015 0.434265 -1.8099 0 1.68521e-13 1.0581e-12 0 3.72711e-20 9.61937e-28
10175 340 0.0015 -0.252228 -1.80757 0 -3.33875e-14 6.29672e-14 0 0 2.0809e-29
8017 268 0.0015 -0.149712 -1.80745 0 3.694e-14 9.96784e-14 0 0 2.11117e-29
1970 66 0.0015 0.00651585 -1.80658 0 -2.31454e-13 2.25434e-12 0 5.20104e-21 3.47776e-27
8055 269 0.0015 0.145748 -1.8063 0 -5.48349e-16 -5.02121e-14 0 0 5.75937e-30