ITEM: TIMESTEP
97180
ITEM: NUMBER OF ATOMS
10500
ITEM: BOX BOUNDS pp pp pp
-1.0249999999999999e+00 1.0249999999999999e+00
-2.0000000000000000e+00 2.0000000000000000e+00
-5.0000000000000003e-02 5.0000000000000003e-02
ITEM: ATOMS id type radius x y z fx fy fz c_bendingE c_stretchingE
10321 345 0.0015 -0.0605191 -1.90326 0 -2.22798e-12 8.09276e-12 0 1.57149e-20 6.20381e-26
6031 202 0.0015 -0.31342 -1.90111 0 2.62335e-12 -4.19092e-12 0 0 6.18179e-26
10322 345 0.0015 -0.061196 -1.90016 0 2.94991e-12 -8.6228e-12 0 1.57149e-20 6.24364e-26
8041 269 0.0015 0.155487 -1.90065 0 6.22368e-13 -6.06065e-12 0 0 6.98535e-26
10261 343 0.0015 0.417684 -1.90089 0 -1.82016e-13 -2.48793e-13 0 0 8.5956e-29
1471 50 0.0015 0.556864 -1.90052 0 2.09256e-12 2.29041e-12 0 0 9.72515e-27
10323 345 0.0015 -0.0618728 -1.89705 0 -1.31931e-12 2.69696e-12 0 1.57149e-20 4.84676e-27
1951 66 0.0015 0.0156385 -1.89738 0 -1.8902e-13 1.60879e-12 0 0 3.49973e-27
10262 343 0.0015 0.418405 -1.89694 0 -6.54464e-13 -6.12131e-12 0 0 4.60811e-26
1472 50 0.0015 0.559091 -1.8976 0 -2.92728e-12 -2.69812e-12 0 0 1.04281e-26
2641 89 0.0015 -0.570912 -1.89491 0 -1.59788e-13 8.41365e-13 0 0 5.31902e-28
1473 50 0.0015 0.561317 -1.89469 0 4.73717e-12 5.34391e-12 0 0 4.10085e-26
2642 89 0.0015 -0.574633 -1.89206 0 2.12308e-13 -2.32172e-12 0 0 1.69013e-27
6032 202 0.0015 -0.318223 -1.89337 0 -2.54454e-12 4.00709e-12 0 2.74394e-21 6.19167e-26
10324 345 0.0015 -0.0625496 -1.89394 0 2.36632e-12 -8.98293e-12 0 1.57149e-20 4.81707e-26
1952 66 0.0015 0.0151583 -1.8926 0 1.81463e-13 -9.06823e-13 0 5.20104e-21 4.15199e-27
8042 269 0.0015 0.154791 -1.89391 0 -1.10527e-12 1.0866e-11 0 0 1.13748e-25
10263 343 0.0015 0.419126 -1.89298 0 1.86748e-12 1.39668e-11 0 0 1.11512e-25
3540 118 0.0015 0.637977 -1.89243 0 -5.0259e-12 -3.96148e-12 0 0 3.61496e-26
6061 203 0.0015 -0.387409 -1.89062 0 3.3131e-13 -1.15898e-12 0 2.48474e-20 3.53966e-28
10325 345 0.0015 -0.0632265 -1.89084 0 -4.00637e-12 1.37704e-11 0 1.57149e-20 9.04136e-26
10231 342 0.0015 0.215 -1.89 0 2.78279e-12 0 0 0 1.48351e-27
10232 342 0.0015 0.21569 -1.89 0 -4.31008e-12 0 0 0 1.9305e-27
10233 342 0.0015 0.216379 -1.89 0 3.29589e-12 0 0 0 1.04622e-27
10234 342 0.0015 0.217069 -1.89 0 -5.14361e-12 0 0 0 2.78106e-27
10235 342 0.0015 0.217759 -1.89 0 9.48991e-12 0 0 0 9.34558e-27
10236 342 0.0015 0.218448 -1.89 0 -1.09023e-11 0 0 0 1.15544e-26
10237 342 0.0015 0.219138 -1.89 0 9.7799e-12 0 0 0 9.16514e-27
10238 342 0.0015 0.219828 -1.89 0 -1.29309e-11 0 0 0 1.68476e-26
10239 342 0.0015 0.220517 -1.89 0 1.72408e-11 0 0 0 2.86513e-26
10240 342 0.0015 0.221207 -1.89 0 -1.86538e-11 0 0 0 3.33302e-26
10241 342 0.0015 0.221897 -1.89 0 1.90167e-11 0 0 0 3.46464e-26
10242 342 0.0015 0.222586 -1.89 0 -2.20226e-11 0 0 0 4.71491e-26
10243 342 0.0015 0.223276 -1.89 0 2.46299e-11 0 0 0 5.81091e-26
10244 342 0.0015 0.223966 -1.89 0 -2.32539e-11 0 0 0 5.19552e-26
10245 342 0.0015 0.224655 -1.89 0 2.18777e-11 0 0 0 4.5846e-26
10246 342 0.0015 0.225345 -1.89 0 -2.18777e-11 0 0 0 4.5846e-26
10247 342 0.0015 0.226034 -1.89 0 2.32539e-11 0 0 0 5.19552e-26
10248 342 0.0015 0.226724 -1.89 0 -2.46299e-11 0 0 0 5.81091e-26
10249 342 0.0015 0.227414 -1.89 0 2.20226e-11 0 0 0 4.71491e-26
10250 342 0.0015 0.228103 -1.89 0 -1.90167e-11 0 0 0 3.46464e-26
10251 342 0.0015 0.228793 -1.89 0 1.86538e-11 0 0 0 3.33302e-26
10252 342 0.0015 0.229483 -1.89 0 -1.72408e-11 0 0 0 2.86513e-26
10253 342 0.0015 0.230172 -1.89 0 1.29309e-11 0 0 0 1.68476e-26
10254 342 0.0015 0.230862 -1.89 0 -9.7799e-12 0 0 0 9.16514e-27
10255 342 0.0015 0.231552 -1.89 0 1.09023e-11 0 0 0 1.15544e-26
10256 342 0.0015 0.232241 -1.89 0 -9.48991e-12 0 0 0 9.34558e-27
10257 342 0.0015 0.232931 -1.89 0 5.14361e-12 0 0 0 2.78106e-27
10258 342 0.0015 0.233621 -1.89 0 -3.29589e-12 0 0 0 1.04622e-27
10259 342 0.0015 0.23431 -1.89 0 4.31008e-12 0 0 0 1.9305e-27
10260 342 0.0015 0.235 -1.89 0 -2.78279e-12 0 0 0 1.48351e-27
6001 201 0.0015 0.490936 -1.89052 0 -3.46715e-13 -9.58721e-13 0 0 2.40454e-27
1474 50 0.0015 0.563543 -1.89178 0 -5.42094e-12 -6.53236e-12 0 0 4.51905e-26
3539 118 0.0015 0.640514 -1.89051 0 1.27621e-11 9.79184e-12 0 0 1.19022e-25
2643 89 0.0015 -0.578354 -1.8892 0 -1.67528e-12 3.62189e-12 0 0 9.90526e-27
6063 203 0.0015 -0.391043 -1.8889 0 -7.4192e-12 9.86742e-12 0 4.96948e-20 4.03714e-26
6064 203 0.0015 -0.392859 -1.88804 0 1.43838e-11 -9.35864e-12 0 4.96948e-20 8.10914e-26
6062 203 0.0015 -0.389226 -1.88976 0 1.60757e-12 -1.66963e-12 0 2.48474e-20 5.26146e-27
10264 343 0.0015 0.419847 -1.88903 0 -1.85444e-12 -1.29256e-11 0 0 9.79704e-26
1475 50 0.0015 0.56577 -1.88887 0 -9.56185e-13 -2.75203e-12 0 6.81478e-21 2.99075e-26
3538 118 0.0015 0.643052 -1.8886 0 -7.46585e-12 -4.5189e-12 0 0 8.37661e-26
2644 89 0.0015 -0.582074 -1.88635 0 2.22826e-12 -2.40536e-12 0 0 9.28227e-27
6066 203 0.0015 -0.396492 -1.88631 0 3.78243e-12 7.01595e-12 0 2.48474e-20 7.43692e-27
6065 203 0.0015 -0.394676 -1.88717 0 -1.41482e-11 -2.25588e-12 0 4.96948e-20 4.99349e-26
7981 267 0.0015 -0.194876 -1.88635 0 2.4089e-12 -2.03883e-14 0 0 3.52894e-27
10326 345 0.0015 -0.0639033 -1.88773 0 4.47794e-12 -1.46823e-11 0 3.14298e-20 1.03602e-25
1953 66 0.0015 0.0146782 -1.88782 0 5.58405e-14 -1.56566e-12 0 5.20104e-21 1.64861e-27
8043 269 0.0015 0.154095 -1.88717 0 7.35653e-13 -7.37415e-12 0 0 5.64319e-26
3537 118 0.0015 0.645589 -1.88668 0 -4.45386e-12 -6.56786e-12 0 1.57149e-20 3.82731e-26
6068 203 0.0015 -0.400126 -1.88459 0 5.27674e-12 -5.70599e-12 0 0 1.45685e-26
6067 203 0.0015 -0.398309 -1.88545 0 -8.68977e-14 2.27804e-12 0 0 9.67038e-27
6033 202 0.0015 -0.323025 -1.88564 0 -1.5098e-12 2.46682e-12 0 2.74394e-21 1.84572e-26
7983 267 0.0015 -0.199527 -1.8846 0 1.79733e-12 5.13242e-12 0 2.00918e-20 3.78351e-27
7982 267 0.0015 -0.197202 -1.88548 0 -4.66075e-12 -1.44944e-12 0 1.00459e-20 5.26705e-27
10327 345 0.0015 -0.0645802 -1.88463 0 -2.46836e-12 8.81315e-12 0 1.57149e-20 5.79966e-26
10265 343 0.0015 0.420568 -1.88507 0 1.53622e-12 7.4415e-12 0 0 3.7891e-26
1476 50 0.0015 0.567996 -1.88596 0 3.95424e-12 6.90726e-12 0 6.81478e-21 3.37736e-26
3536 118 0.0015 0.648126 -1.88476 0 3.7987e-12 6.6563e-12 0 1.57149e-20 3.76335e-26
2645 89 0.0015 -0.585795 -1.88349 0 -7.36502e-14 -5.76316e-13 0 0 1.67027e-27
6071 203 0.0015 -0.405575 -1.882 0 -3.15294e-12 2.94759e-12 0 2.48474e-20 1.07044e-26
6070 203 0.0015 -0.403759 -1.88287 0 -2.28219e-12 6.55312e-12 0 0 1.19208e-26
6069 203 0.0015 -0.401942 -1.88373 0 -1.34857e-12 -4.75915e-12 0 0 1.99112e-26
7985 267 0.0015 -0.204179 -1.88284 0 2.49049e-12 4.88562e-12 0 1.00459e-20 7.19526e-28
7984 267 0.0015 -0.201853 -1.88372 0 -4.8309e-13 -7.14675e-12 0 2.00918e-20 2.13271e-27
1954 66 0.0015 0.0141981 -1.88304 0 5.89479e-14 -2.13117e-13 0 5.20104e-21 2.55867e-27
6002 201 0.0015 0.493952 -1.88275 0 8.45301e-13 2.31871e-12 0 0 7.25959e-27
1477 50 0.0015 0.570222 -1.88304 0 -1.92869e-12 -2.70856e-12 0 1.36296e-20 8.90708e-27
3535 118 0.0015 0.650663 -1.88285 0 3.78068e-12 7.63359e-13 0 1.57149e-20 1.44805e-26
2646 89 0.0015 -0.589516 -1.88064 0 -5.65244e-13 6.03038e-13 0 0 1.15313e-27
6073 203 0.0015 -0.409209 -1.88028 0 -1.358e-12 1.22895e-11 0 4.96948e-20 2.45492e-26
6072 203 0.0015 -0.407392 -1.88114 0 1.11821e-12 -7.52649e-12 0 4.96948e-20 1.06771e-26
7988 267 0.0015 -0.211156 -1.8802 0 -9.99399e-12 6.29922e-13 0 1.00459e-20 3.16661e-26
7987 267 0.0015 -0.208831 -1.88108 0 6.30302e-12 -9.05412e-13 0 1.00459e-20 1.79718e-26
7986 267 0.0015 -0.206505 -1.88196 0 -2.84423e-12 -1.20495e-12 0 0 1.7593e-27
8011 268 0.0015 -0.176367 -1.88159 0 -4.47417e-13 -1.22548e-12 0 1.90242e-21 6.20767e-27
10328 345 0.0015 -0.065257 -1.88152 0 -3.35934e-13 1.90381e-14 0 1.57149e-20 2.35541e-27
8044 269 0.0015 0.1534 -1.88043 0 -2.96802e-13 3.05376e-12 0 0 1.2984e-26
10266 343 0.0015 0.421289 -1.88111 0 -1.70261e-12 -4.03863e-12 0 1.24237e-20 1.02336e-26
1478 50 0.0015 0.572449 -1.88013 0 6.58551e-13 -2.73072e-13 0 6.81478e-21 2.00347e-28
3534 118 0.0015 0.653201 -1.88093 0 -3.977e-12 -3.10614e-12 0 0 1.51667e-26
10292 344 0.0015 -0.465124 -1.8785 0 -6.5083e-13 3.92163e-13 0 0 2.03027e-27
10291 344 0.0015 -0.4623 -1.87941 0 1.28269e-12 -6.37932e-13 0 0 1.65292e-27
6074 203 0.0015 -0.411025 -1.87942 0 7.17094e-12 -1.95974e-11 0 2.48474e-20 6.25582e-26
6075 203 0.0015 -0.412842 -1.87856 0 -2.54689e-12 2.09665e-11 0 0 4.31724e-26
7990 267 0.0015 -0.215808 -1.87844 0 -5.89704e-12 -1.28665e-12 0 1.00459e-20 9.73967e-27
7989 267 0.0015 -0.213482 -1.87932 0 8.67463e-12 4.13502e-13 0 1.00459e-20 2.25048e-26
10329 345 0.0015 -0.0659339 -1.87841 0 5.94997e-13 -6.6098e-13 0 0 1.43018e-27
1955 66 0.0015 0.0137179 -1.87827 0 -3.26807e-13 3.19137e-12 0 0 7.59201e-27
10201 341 0.0015 0.290108 -1.87875 0 -1.90236e-14 2.93753e-13 0 3.6872e-21 1.62595e-28
3533 118 0.0015 0.655738 -1.87902 0 5.88936e-13 1.95393e-12 0 0 1.27485e-27
2647 89 0.0015 -0.593237 -1.87778 0 2.96342e-12 -1.56129e-12 0 5.32605e-21 1.52504e-26
10294 344 0.0015 -0.470773 -1.87669 0 -3.24966e-12 -2.06069e-12 0 0 4.6036e-27
10293 344 0.0015 -0.467948 -1.87759 0 -1.81267e-13 1.31467e-12 0 0 3.85913e-28
6077 203 0.0015 -0.416475 -1.87683 0 3.8115e-13 2.37793e-12 0 0 2.44129e-27
6076 203 0.0015 -0.414658 -1.87769 0 -1.35279e-12 -1.40832e-11 0 0 6.91669e-27
6034 202 0.0015 -0.327828 -1.87791 0 3.13282e-12 -4.92489e-12 0 2.74394e-21 4.33255e-26
7992 267 0.0015 -0.22046 -1.87668 0 6.32874e-12 -8.1216e-12 0 4.01836e-20 2.77078e-26
7991 267 0.0015 -0.218134 -1.87756 0 -4.1013e-13 4.05044e-12 0 3.01377e-20 1.07209e-26
10267 343 0.0015 0.42201 -1.87716 0 9.29922e-13 -7.24692e-13 0 1.24237e-20 1.24557e-26
1479 50 0.0015 0.574675 -1.87722 0 3.00737e-13 1.51804e-12 0 6.81478e-21 1.46233e-27
3532 118 0.0015 0.658275 -1.8771 0 3.93988e-12 -1.65798e-14 0 0 1.2752e-26
2648 89 0.0015 -0.596958 -1.87493 0 -3.87683e-12 2.39601e-12 0 1.06521e-20 1.68519e-26
10296 344 0.0015 -0.476421 -1.87487 0 -7.06181e-13 2.00809e-12 0 4.21061e-20 4.2534e-27
10295 344 0.0015 -0.473597 -1.87578 0 4.91674e-12 6.67219e-13 0 2.52637e-20 8.28239e-27
6080 203 0.0015 -0.421925 -1.87425 0 -1.02981e-11 6.17893e-12 0 2.48474e-20 4.13618e-26
6079 203 0.0015 -0.420108 -1.87511 0 1.08666e-11 -4.04737e-12 0 0 3.92922e-26
6078 203 0.0015 -0.418291 -1.87597 0 -4.49683e-12 3.42924e-12 0 0 1.16429e-26
7995 267 0.0015 -0.227437 -1.87404 0 1.33197e-11 6.64282e-12 0 0 3.53241e-26
7994 267 0.0015 -0.225111 -1.87492 0 -9.49312e-12 -6.14814e-12 0 1.00459e-20 2.03022e-26
7993 267 0.0015 -0.222785 -1.8758 0 -7.62311e-13 8.60887e-12 0 3.01377e-20 2.05813e-26
10330 345 0.0015 -0.0666107 -1.87531 0 -6.84945e-13 3.84679e-12 0 0 1.67248e-26
6003 201 0.0015 0.496967 -1.87498 0 -1.23762e-12 -3.27098e-12 0 0 1.45725e-26
1480 50 0.0015 0.576901 -1.87431 0 4.47996e-13 -5.03081e-13 0 0 2.54613e-27
3531 118 0.0015 0.660812 -1.87519 0 -9.16711e-12 -1.90628e-12 0 0 3.20495e-26
2649 89 0.0015 -0.600679 -1.87207 0 -1.07372e-12 1.0075e-12 0 1.06521e-20 1.02927e-26
10299 344 0.0015 -0.484893 -1.87215 0 -2.07989e-12 1.26103e-12 0 0 4.23246e-27
10298 344 0.0015 -0.482069 -1.87306 0 4.06684e-12 1.36226e-12 0 1.68424e-20 5.39286e-27
10297 344 0.0015 -0.479245 -1.87396 0 -3.19651e-12 -3.34543e-12 0 4.21061e-20 1.73499e-27
6082 203 0.0015 -0.425558 -1.87252 0 -1.03724e-13 1.45461e-12 0 4.96948e-20 5.04424e-28
6081 203 0.0015 -0.423741 -1.87338 0 3.66508e-12 -5.70752e-12 0 4.96948e-20 1.35143e-26
7997 267 0.0015 -0.232089 -1.87228 0 1.25433e-11 7.67737e-12 0 0 3.01173e-26
7996 267 0.0015 -0.229763 -1.87316 0 -1.44893e-11 -8.28894e-12 0 0 3.91894e-26
10331 345 0.0015 -0.0672875 -1.8722 0 1.73187e-12 -1.11964e-11 0 0 5.95587e-26
1956 66 0.0015 0.0132378 -1.87349 0 7.21077e-13 -6.8961e-12 0 5.20104e-21 3.6867e-26
8045 269 0.0015 0.152704 -1.87369 0 -1.01026e-13 6.67454e-13 0 0 2.98389e-27
10202 341 0.0015 0.289307 -1.87202 0 -2.54145e-13 1.82103e-12 0 3.6872e-21 8.71849e-27
4531 152 0.0015 0.366216 -1.8733 0 2.4481e-13 -1.50308e-12 0 0 5.61963e-27
10268 343 0.0015 0.422731 -1.8732 0 7.94003e-13 7.2391e-12 0 1.24237e-20 3.17674e-26
3530 118 0.0015 0.66335 -1.87327 0 7.05123e-12 -6.08063e-13 0 0 1.98955e-26
10301 344 0.0015 -0.490541 -1.87033 0 2.7912e-12 3.7624e-12 0 0 9.837e-28
10300 344 0.0015 -0.487717 -1.87124 0 -1.66312e-12 -2.48481e-12 0 0 7.1379e-28
6084 203 0.0015 -0.429191 -1.8708 0 7.71267e-12 -1.14978e-11 0 0 4.72221e-26
6083 203 0.0015 -0.427374 -1.87166 0 -1.71939e-12 4.61769e-12 0 2.48474e-20 6.19246e-27
6035 202 0.0015 -0.332631 -1.87017 0 -1.79166e-12 2.72318e-12 0 0 2.50015e-26
7999 267 0.0015 -0.23674 -1.87052 0 6.81767e-12 3.1288e-12 0 0 1.04522e-26
7998 267 0.0015 -0.234415 -1.8714 0 -7.7745e-12 -6.03092e-12 0 0 9.84119e-27
1481 50 0.0015 0.579128 -1.8714 0 -4.22291e-12 -3.67951e-12 0 0 2.11587e-26
3529 118 0.0015 0.665887 -1.87136 0 -3.76555e-12 1.53152e-12 0 0 2.34765e-27
2650 89 0.0015 -0.6044 -1.86922 0 1.70022e-12 -1.39183e-12 0 1.06521e-20 8.86511e-27
10303 344 0.0015 -0.49619 -1.86852 0 3.73802e-12 1.48367e-12 0 0 3.98139e-27
10302 344 0.0015 -0.493366 -1.86943 0 -3.5433e-12 -3.80302e-12 0 0 2.46423e-27
6087 203 0.0015 -0.434641 -1.86821 0 6.00759e-12 -4.93493e-12 0 2.48474e-20 2.00197e-26
6085 203 0.0015 -0.431008 -1.86994 0 -8.81342e-12 1.01637e-11 0 0 4.88906e-26
6086 203 0.0015 -0.432824 -1.86908 0 -1.54383e-12 1.29237e-12 0 2.48474e-20 2.59479e-26
8001 267 0.0015 -0.241392 -1.86876 0 1.02966e-11 -6.84767e-12 0 0 5.15652e-26
8000 267 0.0015 -0.239066 -1.86964 0 -8.36409e-12 1.76363e-12 0 0 2.55258e-26
8012 268 0.0015 -0.171924 -1.86923 0 6.6014e-13 1.78684e-12 0 3.80484e-21 7.52167e-27
10332 345 0.0015 -0.0679644 -1.86909 0 -8.54622e-13 7.66211e-12 0 0 4.3416e-26
1957 66 0.0015 0.0127576 -1.86871 0 -1.21839e-12 1.18448e-11 0 1.04021e-20 9.80831e-26
10269 343 0.0015 0.423451 -1.86924 0 -6.2669e-13 -4.21851e-12 0 0 2.42725e-26
1482 50 0.0015 0.581354 -1.86848 0 4.90777e-12 4.75263e-12 0 0 2.55161e-26
3528 118 0.0015 0.668424 -1.86944 0 -1.59311e-12 -2.22217e-12 0 0 1.72687e-26
2651 89 0.0015 -0.608121 -1.86636 0 -4.76413e-14 -1.14291e-13 0 1.06521e-20 3.53678e-28
10305 344 0.0015 -0.501838 -1.8667 0 -3.555e-13 -2.4506e-12 0 0 1.3597e-28
10304 344 0.0015 -0.499014 -1.86761 0 -1.51002e-12 1.45409e-12 0 0 1.93157e-27
6089 203 0.0015 -0.438274 -1.86649 0 -1.67374e-12 2.98858e-12 0 0 3.50897e-27
6088 203 0.0015 -0.436457 -1.86735 0 -3.44393e-14 -1.5642e-12 0 2.48474e-20 5.36516e-27
8004 267 0.0015 -0.248369 -1.86612 0 -2.42049e-12 -5.33818e-13 0 0 1.84513e-26
8003 267 0.0015 -0.246044 -1.867 0 -1.12321e-12 -2.23282e-12 0 0 7.56428e-27
8002 267 0.0015 -0.243718 -1.86788 0 -7.12086e-12 7.28156e-12 0 0 3.74998e-26
8046 269 0.0015 0.152008 -1.86695 0 3.51969e-14 4.27136e-13 0 0 7.2505e-27
6004 201 0.0015 0.499982 -1.86721 0 3.33755e-13 8.51003e-13 0 5.99535e-21 1.26984e-26
3527 118 0.0015 0.670962 -1.86752 0 4.3662e-12 1.43904e-12 0 0 1.52217e-26
10307 344 0.0015 -0.507486 -1.86489 0 1.26516e-11 -1.52043e-12 0 1.68424e-20 6.46733e-26
10306 344 0.0015 -0.504662 -1.8658 0 -5.46021e-12 2.34736e-12 0 1.68424e-20 2.87952e-26
6090 203 0.0015 -0.440091 -1.86563 0 7.50696e-14 -5.54118e-13 0 0 5.20762e-29
8006 267 0.0015 -0.253021 -1.86436 0 -4.81042e-12 8.1936e-13 0 0 1.89022e-26
8005 267 0.0015 -0.250695 -1.86524 0 1.01209e-11 -8.18111e-13 0 0 3.3026e-26
10333 345 0.0015 -0.0686412 -1.86599 0 -2.79341e-12 8.70878e-12 0 0 8.5142e-26
10203 341 0.0015 0.288506 -1.8653 0 1.25974e-13 -6.52806e-13 0 3.6872e-21 1.26176e-26
4532 152 0.0015 0.364868 -1.86469 0 -2.29659e-13 1.33807e-12 0 0 5.6859e-27
10270 343 0.0015 0.424172 -1.86529 0 -4.92364e-13 -2.39763e-12 0 0 4.92221e-27
1483 50 0.0015 0.58358 -1.86557 0 9.06489e-13 1.10721e-12 0 0 1.98134e-26
3526 118 0.0015 0.673499 -1.86561 0 4.86314e-12 6.51456e-12 0 0 5.67183e-26
2652 89 0.0015 -0.611842 -1.86351 0 3.82269e-14 5.22788e-13 0 1.59781e-20 6.95438e-28
10310 344 0.0015 -0.515959 -1.86217 0 2.95551e-12 -3.44549e-12 0 1.68424e-20 1.33562e-26
10309 344 0.0015 -0.513134 -1.86307 0 -1.05358e-12 4.66894e-12 0 1.68424e-20 1.5424e-26
10308 344 0.0015 -0.51031 -1.86398 0 -9.02133e-12 -1.30253e-12 0 3.36849e-20 3.79658e-26
6036 202 0.0015 -0.337434 -1.86244 0 -1.11599e-12 1.90286e-12 0 2.74394e-21 1.36655e-26
8008 267 0.0015 -0.257673 -1.8626 0 9.15567e-13 2.428e-12 0 0 1.60722e-28
8007 267 0.0015 -0.255347 -1.86348 0 -3.48546e-13 -6.88662e-13 0 0 2.05569e-28
10334 345 0.0015 -0.0693181 -1.86288 0 5.09252e-12 -1.83889e-11 0 1.57149e-20 1.60392e-25
1958 66 0.0015 0.0122775 -1.86393 0 1.07059e-12 -1.06847e-11 0 1.56031e-20 8.49091e-26
1484 50 0.0015 0.585807 -1.86266 0 -4.51874e-12 -5.46718e-12 0 0 2.56634e-26
3525 118 0.0015 0.676036 -1.86369 0 -4.86314e-12 -6.51456e-12 0 0 5.67183e-26
2653 89 0.0015 -0.615563 -1.86065 0 -1.70727e-13 -4.64971e-13 0 1.06521e-20 8.49842e-28
10312 344 0.0015 -0.521607 -1.86035 0 1.46905e-12 3.88387e-12 0 0 1.77711e-26
10311 344 0.0015 -0.518783 -1.86126 0 2.65532e-12 -2.62866e-12 0 0 8.33604e-27
8010 267 0.0015 -0.262324 -1.86085 0 1.82639e-12 8.87436e-13 0 0 1.34288e-27
8009 267 0.0015 -0.259998 -1.86172 0 -2.84705e-12 -2.62549e-12 0 0 1.42265e-27
8047 269 0.0015 0.151313 -1.86021 0 4.542e-13 -5.45435e-12 0 0 3.31846e-26
10271 343 0.0015 0.424893 -1.86133 0 3.75231e-13 2.5881e-12 0 0 5.09555e-27
3524 118 0.0015 0.678573 -1.86178 0 -4.3662e-12 -1.43904e-12 0 0 1.52217e-26
10314 344 0.0015 -0.527255 -1.85854 0 8.75012e-12 -4.7455e-12 0 0 3.95393e-26
10313 344 0.0015 -0.524431 -1.85944 0 -8.69187e-12 8.73509e-13 0 0 3.1351e-26
10335 345 0.0015 -0.0699949 -1.85978 0 -2.25538e-12 7.18924e-12 0 1.57149e-20 7.83826e-26
1959 66 0.0015 0.0117974 -1.85915 0 -6.26611e-13 6.42893e-12 0 1.56031e-20 2.82785e-26
4771 160 0.0015 0.0785585 -1.85825 0 1.53592e-14 -6.66844e-13 0 2.71488e-21 1.13712e-27
10204 341 0.0015 0.287705 -1.85857 0 7.34495e-13 -6.66671e-12 0 0 5.56879e-26
6005 201 0.0015 0.502997 -1.85945 0 1.82923e-12 4.74078e-12 0 1.7986e-20 3.90353e-26
1485 50 0.0015 0.588033 -1.85975 0 5.15218e-13 1.79368e-12 0 0 1.39379e-26
3523 118 0.0015 0.681111 -1.85986 0 1.59311e-12 2.22217e-12 0 0 1.72687e-26
2654 89 0.0015 -0.619284 -1.8578 0 3.68721e-12 -2.84491e-12 0 1.06521e-20 2.29124e-26
10316 344 0.0015 -0.532903 -1.85672 0 -1.8856e-12 -2.5174e-13 0 3.36849e-20 1.91575e-26
10315 344 0.0015 -0.530079 -1.85763 0 -5.9352e-12 4.63242e-12 0 1.68424e-20 2.25505e-26
8013 268 0.0015 -0.167482 -1.85688 0 -3.98024e-13 -1.0709e-12 0 3.80484e-21 2.38623e-27
10336 345 0.0015 -0.0706718 -1.85667 0 -2.1327e-13 -5.26721e-13 0 1.57149e-20 7.06926e-27
4533 152 0.0015 0.36352 -1.85607 0 -3.87796e-13 2.52883e-12 0 5.72705e-21 1.39427e-26
10272 343 0.0015 0.425614 -1.85738 0 -1.94674e-13 -2.72203e-12 0 0 5.56486e-27
1486 50 0.0015 0.59026 -1.85684 0 -5.15218e-13 -1.79368e-12 0 0 1.39379e-26
3522 118 0.0015 0.683648 -1.85795 0 3.76555e-12 -1.53152e-12 0 0 2.34765e-27
3521 118 0.0015 0.686185 -1.85603 0 -7.05123e-12 6.08063e-13 0 0 1.98955e-26
2655 89 0.0015 -0.623004 -1.85494 0 -4.54251e-12 4.00306e-12 0 5.32605e-21 2.7182e-26
10318 344 0.0015 -0.538552 -1.85491 0 -3.63515e-13 -1.63953e-13 0 3.36849e-20 2.68145e-26
10317 344 0.0015 -0.535727 -1.85581 0 7.89712e-12 -2.67766e-12 0 5.05273e-20 2.86402e-26
6037 202 0.0015 -0.342237 -1.85471 0 1.12699e-12 -1.95054e-12 0 2.74394e-21 1.36436e-26
1960 66 0.0015 0.0113172 -1.85437 0 4.28798e-13 -4.23784e-12 0 1.04021e-20 1.33768e-26
3520 118 0.0015 0.688722 -1.85412 0 9.16711e-12 1.90628e-12 0 0 3.20495e-26
2656 89 0.0015 -0.626725 -1.85209 0 2.01072e-12 -1.5996e-12 0 5.32605e-21 5.21108e-27
10320 344 0.0015 -0.5442 -1.85309 0 5.18352e-12 -1.57536e-12 0 0 2.41782e-26
10319 344 0.0015 -0.541376 -1.854 0 -8.81016e-12 2.98209e-12 0 1.68424e-20 3.66026e-26
10337 345 0.0015 -0.0713486 -1.85356 0 -2.47905e-12 1.5337e-11 0 0 1.60375e-25
8048 269 0.0015 0.150617 -1.85348 0 -5.19173e-13 5.95884e-12 0 0 3.66999e-26
10273 343 0.0015 0.426335 -1.85342 0 4.22808e-13 4.02004e-12 0 0 9.12298e-27
1487 50 0.0015 0.592486 -1.85392 0 4.51874e-12 5.46718e-12 0 0 2.56634e-26
3519 118 0.0015 0.69126 -1.8522 0 -3.93988e-12 1.65798e-14 0 0 1.2752e-26
10338 345 0.0015 -0.0720254 -1.85046 0 3.93919e-12 -2.17234e-11 0 1.57149e-20 2.23973e-25
10205 341 0.0015 0.286904 -1.85184 0 -9.6755e-13 8.21129e-12 0 0 6.89084e-26
6006 201 0.0015 0.506013 -1.85168 0 -2.45588e-12 -6.34127e-12 0 2.39814e-20 5.49035e-26
1488 50 0.0015 0.594712 -1.85101 0 -9.06489e-13 -1.10721e-12 0 0 1.98134e-26
3518 118 0.0015 0.693797 -1.85028 0 -5.88936e-13 -1.95393e-12 0 0 1.27485e-27
2657 89 0.0015 -0.630446 -1.84923 0 7.91311e-13 -1.06849e-12 0 5.32605e-21 5.68743e-27
1961 66 0.0015 0.0108371 -1.84959 0 -1.62746e-13 1.24602e-12 0 5.20104e-21 2.80614e-27
4772 160 0.0015 0.0782973 -1.84905 0 -3.03165e-14 1.35695e-12 0 2.71488e-21 2.35489e-27
10274 343 0.0015 0.427056 -1.84946 0 4.22126e-13 1.20645e-12 0 0 1.4839e-26
1489 50 0.0015 0.596939 -1.8481 0 -4.90777e-12 -4.75263e-12 0 0 2.55161e-26
3517 118 0.0015 0.696334 -1.84837 0 3.977e-12 3.10614e-12 0 0 1.51667e-26
2658 89 0.0015 -0.634167 -1.84638 0 -4.54542e-12 3.65642e-12 0 1.06521e-20 2.44824e-26
6038 202 0.0015 -0.34704 -1.84697 0 3.81211e-14 1.18555e-13 0 2.74394e-21 6.99063e-29
10339 345 0.0015 -0.0727023 -1.84735 0 -1.09503e-12 9.40957e-12 0 3.14298e-20 6.83346e-26
8049 269 0.0015 0.149922 -1.84674 0 3.17243e-13 -3.56829e-12 0 0 1.24117e-26
6541 219 0.0015 0.213251 -1.84656 0 -1.25701e-13 1.68456e-12 0 0 5.63467e-27
4534 152 0.0015 0.362172 -1.84745 0 6.75885e-13 -4.29704e-12 0 1.14541e-20 2.31556e-26
3516 118 0.0015 0.698871 -1.84645 0 -3.78068e-12 -7.63359e-13 0 1.57149e-20 1.44805e-26
8014 268 0.0015 -0.163039 -1.84452 0 4.71535e-13 1.31688e-12 0 3.80484e-21 3.74834e-27
10340 345 0.0015 -0.0733791 -1.84424 0 -1.56405e-12 2.0044e-12 0 3.14298e-20 8.04381e-27
1962 66 0.0015 0.010357 -1.84481 0 2.35363e-13 -2.15464e-12 0 0 7.41265e-27
10206 341 0.0015 0.286103 -1.84511 0 6.66402e-13 -4.82956e-12 0 0 2.36817e-26
10275 343 0.0015 0.427777 -1.84551 0 -1.70265e-12 -8.27898e-12 0 0 4.25592e-26
1490 50 0.0015 0.599165 -1.84519 0 4.22291e-12 3.67951e-12 0 0 2.11587e-26
3515 118 0.0015 0.701409 -1.84454 0 -3.7987e-12 -6.6563e-12 0 1.57149e-20 3.76335e-26
2659 89 0.0015 -0.637888 -1.84352 0 3.64988e-12 -2.61303e-12 0 1.06521e-20 1.99301e-26
6007 201 0.0015 0.509028 -1.84391 0 1.57352e-12 4.10044e-12 0 2.39814e-20 2.43272e-26
1491 50 0.0015 0.601391 -1.84228 0 -4.47996e-13 5.03081e-13 0 0 2.54613e-27
3514 118 0.0015 0.703946 -1.84262 0 4.45386e-12 6.56786e-12 0 1.57149e-20 3.82731e-26
2660 89 0.0015 -0.641609 -1.84066 0 2.10349e-12 -1.76384e-12 0 5.32605e-21 1.52887e-26
10341 345 0.0015 -0.074056 -1.84114 0 4.78174e-13 1.9858e-13 0 1.57149e-20 1.58178e-26
1963 66 0.0015 0.00987681 -1.84004 0 -6.61297e-13 6.89752e-12 0 0 3.53416e-26
10276 343 0.0015 0.428498 -1.84155 0 1.70265e-12 8.27898e-12 0 0 4.25592e-26
3513 118 0.0015 0.706483 -1.84071 0 7.46585e-12 4.5189e-12 0 0 8.37661e-26
6039 202 0.0015 -0.351842 -1.83924 0 -6.1861e-13 8.77552e-13 0 2.74394e-21 3.83738e-27
10342 345 0.0015 -0.0747328 -1.83803 0 7.06455e-13 1.21241e-13 0 1.57149e-20 1.61346e-26
4773 160 0.0015 0.0780361 -1.83985 0 2.90313e-14 -1.2565e-12 0 5.42976e-21 2.03818e-27
8050 269 0.0015 0.149226 -1.84 0 -5.71348e-14 4.98466e-13 0 0 6.02557e-27
6542 219 0.0015 0.21269 -1.83947 0 1.78995e-13 -2.54682e-12 0 0 7.10798e-27
10207 341 0.0015 0.285302 -1.83839 0 -7.71304e-13 5.46468e-12 0 0 3.17947e-26
4535 152 0.0015 0.360823 -1.83883 0 -5.21038e-13 3.461e-12 0 1.71811e-20 1.50491e-26
1492 50 0.0015 0.603618 -1.83936 0 -3.00737e-13 -1.51804e-12 0 6.81478e-21 1.46233e-27
3512 118 0.0015 0.70902 -1.83879 0 -1.27621e-11 -9.79184e-12 0 0 1.19022e-25
2661 89 0.0015 -0.64533 -1.83781 0 -6.05138e-12 4.74502e-12 0 0 3.91088e-26
10277 343 0.0015 0.429219 -1.8376 0 -4.22126e-13 -1.20645e-12 0 0 1.4839e-26
6008 201 0.0015 0.512043 -1.83614 0 -6.89735e-13 -1.95966e-12 0 1.19907e-20 6.14826e-27
1493 50 0.0015 0.605844 -1.83645 0 -6.58551e-13 2.73072e-13 0 6.81478e-21 2.00347e-28
3511 118 0.0015 0.711558 -1.83688 0 5.0259e-12 3.96148e-12 0 0 3.61496e-26
2662 89 0.0015 -0.649051 -1.83495 0 9.45979e-12 -7.46196e-12 0 0 1.02099e-25
10343 345 0.0015 -0.0754097 -1.83493 0 1.24594e-12 -1.3012e-11 0 1.57149e-20 9.5806e-26
1964 66 0.0015 0.00939668 -1.83526 0 1.28349e-12 -1.30867e-11 0 0 1.2597e-25
2663 89 0.0015 -0.652772 -1.8321 0 -1.23843e-11 9.72409e-12 0 0 1.6154e-25
10171 340 0.0015 -0.234195 -1.83312 0 -1.22407e-12 1.72098e-12 0 0 9.68546e-27
8015 268 0.0015 -0.158597 -1.83216 0 -5.21509e-13 -1.46482e-12 0 1.90242e-21 4.45471e-27
8051 269 0.0015 0.14853 -1.83326 0 -1.8457e-13 2.11014e-12 0 3.6872e-21 4.23907e-27
6543 219 0.0015 0.212128 -1.83239 0 1.07564e-13 -1.10504e-12 0 0 9.16682e-27
10278 343 0.0015 0.429939 -1.83364 0 -4.22808e-13 -4.02004e-12 0 0 9.12298e-27
1494 50 0.0015 0.60807 -1.83354 0 1.92869e-12 2.70856e-12 0 1.36296e-20 8.90708e-27
6040 202 0.0015 -0.356645 -1.83151 0 1.32272e-12 -2.07669e-12 0 5.48788e-21 7.66446e-27
10344 345 0.0015 -0.0760865 -1.83182 0 -1.10211e-12 1.18181e-11 0 1.57149e-20 9.07147e-26
1965 66 0.0015 0.00891654 -1.83048 0 -1.3926e-12 1.42379e-11 0 0 1.41881e-25
4774 160 0.0015 0.0777749 -1.83066 0 2.30307e-14 -6.76132e-13 0 5.42976e-21 4.76985e-27
10208 341 0.0015 0.284501 -1.83166 0 7.8955e-13 -5.91368e-12 0 0 3.52817e-26
4536 152 0.0015 0.359475 -1.83021 0 1.84065e-13 -1.51349e-12 0 1.71811e-20 5.77079e-27
1495 50 0.0015 0.610297 -1.83063 0 -3.95424e-12 -6.90726e-12 0 6.81478e-21 3.37736e-26
2664 89 0.0015 -0.656493 -1.82924 0 6.73304e-12 -5.2803e-12 0 0 8.41471e-26
10345 345 0.0015 -0.0767633 -1.82871 0 -8.02654e-14 -3.59286e-12 0 0 5.39543e-27
10279 343 0.0015 0.43066 -1.82968 0 1.94674e-13 2.72203e-12 0 0 5.56486e-27
6009 201 0.0015 0.515058 -1.82837 0 -1.32888e-13 1.05866e-14 0 1.19907e-20 1.43899e-27
2665 89 0.0015 -0.660213 -1.82639 0 3.29012e-12 -2.46071e-12 0 0 2.84938e-26
10172 340 0.0015 -0.238704 -1.82673 0 1.1418e-12 -1.60574e-12 0 0 9.729e-27
8052 269 0.0015 0.147835 -1.82652 0 1.94716e-13 -2.03798e-12 0 3.6872e-21 3.98505e-27
1496 50 0.0015 0.612523 -1.82772 0 9.56185e-13 2.75203e-12 0 6.81478e-21 2.99075e-26
10346 345 0.0015 -0.0774402 -1.82561 0 -1.2018e-12 6.1103e-12 0 0 2.07224e-26
1966 66 0.0015 0.0084364 -1.8257 0 3.25712e-13 -4.40404e-12 0 0 4.62115e-26
6544 219 0.0015 0.211567 -1.8253 0 -1.26266e-13 1.70336e-12 0 0 7.83307e-27
10209 341 0.0015 0.2837 -1.82493 0 -9.67788e-14 1.21003e-13 0 0 1.86705e-26
10280 343 0.0015 0.431381 -1.82573 0 -3.75231e-13 -2.5881e-12 0 0 5.09555e-27
1497 50 0.0015 0.614749 -1.8248 0 5.42094e-12 6.53236e-12 0 0 4.51905e-26
2666 89 0.0015 -0.663934 -1.82353 0 -5.27269e-12 4.11749e-12 0 0 3.35608e-26
6041 202 0.0015 -0.361448 -1.82377 0 -7.53982e-13 1.18996e-12 0 5.48788e-21 3.957e-27
10347 345 0.0015 -0.078117 -1.8225 0 1.99757e-12 -6.63449e-12 0 0 2.31602e-26
2667 89 0.0015 -0.667655 -1.82068 0 1.83476e-12 -1.76929e-12 0 0 5.75441e-27
10173 340 0.0015 -0.243212 -1.82034 0 7.3306e-13 -1.02843e-12 0 0 2.77414e-27
1967 66 0.0015 0.00795626 -1.82092 0 -1.13776e-13 2.85439e-12 0 5.20104e-21 2.55509e-26
4775 160 0.0015 0.0775136 -1.82146 0 -9.19225e-14 3.19545e-12 0 8.14464e-21 1.3705e-26
4537 152 0.0015 0.358127 -1.82159 0 3.22713e-14 2.80594e-14 0 1.14541e-20 5.19165e-30
10281 343 0.0015 0.432102 -1.82177 0 4.92364e-13 2.39763e-12 0 0 4.92221e-27
6010 201 0.0015 0.518074 -1.8206 0 -5.30235e-13 -1.74906e-12 0 5.99535e-21 1.40874e-26
1498 50 0.0015 0.616976 -1.82189 0 -4.73717e-12 -5.34391e-12 0 0 4.10085e-26
8016 268 0.0015 -0.154154 -1.81981 0 5.39307e-13 1.49948e-12 0 3.80484e-21 4.70161e-27
10348 345 0.0015 -0.0787939 -1.81939 0 -2.07651e-12 5.8092e-12 0 0 1.73769e-26
8053 269 0.0015 0.147139 -1.81978 0 -6.75004e-13 6.28621e-12 0 3.6872e-21 5.65391e-26
6545 219 0.0015 0.211005 -1.81821 0 -1.02475e-13 8.73235e-13 0 3.51396e-21 8.80969e-28
10210 341 0.0015 0.282899 -1.8182 0 -3.22893e-13 3.65983e-12 0 0 1.30855e-26
1499 50 0.0015 0.619202 -1.81898 0 2.92728e-12 2.69812e-12 0 0 1.04281e-26
2668 89 0.0015 -0.671376 -1.81782 0 -6.97223e-13 1.10088e-12 0 0 1.01427e-27
6042 202 0.0015 -0.366251 -1.81604 0 9.14525e-13 -1.48554e-12 0 2.74394e-21 6.34701e-27
10349 345 0.0015 -0.0794707 -1.81629 0 2.28862e-12 -7.90235e-12 0 0 2.99696e-26
1968 66 0.0015 0.00747613 -1.81614 0 1.18149e-12 -1.31346e-11 0 1.04021e-20 1.31642e-25
10282 343 0.0015 0.432823 -1.81781 0 6.2669e-13 4.21851e-12 0 0 2.42725e-26
1500 50 0.0015 0.621428 -1.81607 0 -2.09256e-12 -2.29041e-12 0 0 9.72515e-27
2669 89 0.0015 -0.675097 -1.81497 0 1.6456e-12 -1.7293e-12 0 0 4.13756e-27
5941 199 0.0015 0.740778 -1.81551 0 6.74883e-14 3.69835e-13 0 0 3.75801e-28
2670 89 0.0015 -0.678818 -1.81211 0 -1.21194e-12 1.08764e-12 0 0 3.43439e-27
10174 340 0.0015 -0.24772 -1.81396 0 1.2558e-12 -1.757e-12 0 0 2.61072e-26
10350 345 0.0015 -0.0801475 -1.81318 0 -1.11113e-12 4.31846e-12 0 0 1.7535e-26
4776 160 0.0015 0.0772524 -1.81226 0 3.27409e-14 -1.27677e-12 0 5.42976e-21 1.09253e-26
8054 269 0.0015 0.146443 -1.81304 0 7.90448e-13 -6.95703e-12 0 0 5.97551e-26
4538 152 0.0015 0.356779 -1.81297 0 3.99858e-13 -2.43746e-12 0 1.14541e-20 1.42884e-26
10283 343 0.0015 0.433544 -1.81386 0 -7.94003e-13 -7.2391e-12 0 1.24237e-20 3.17674e-26
6011 201 0.0015 0.521089 -1.81283 0 2.48173e-12 6.6313e-12 0 5.99535e-21 6.40443e-26
1969 66 0.0015 0.00699599 -1.81136 0 -1.05088e-12 1.10727e-11 0 1.04021e-20 1.14344e-25
6546 219 0.0015 0.210443 -1.81113 0 -2.0143e-14 6.33449e-13 0 3.51396e-21 3.80616e-27
10211 341 0.0015 0.282098 -1.81148 0 -2.6572e-13 1.23388e-12 0 0 1.87255e-26
6043 202 0.0015 -0.371054 -1.8083 0 -2.24937e-12 3.57247e-12 0 0 2.39843e-26
10284 343 0.0015 0.434265 -1.8099 0 -9.29922e-13 7.24692e-13 0 1.24237e-20 1.24557e-26
10175 340 0.0015 -0.252228 -1.80757 0 -2.67116e-12 3.73528e-12 0 0 2.71094e-26
8017 268 0.0015 -0.149712 -1.80745 0 -6.27102e-13 -1.74678e-12 0 1.90242e-21 6.28953e-27
1970 66 0.0015 0.00651585 -1.80658 0 -5.53587e-14 4.48721e-13 0 5.20104e-21 1.46664e-26
8055 269 0.0015 0.145748 -1.8063 0 2.91318e-14 -1.2814e-12 0 0 2.03624e-26
5942 199 0.0015 0.743061 -1.80618 0 -1.5515e-13 -9.24488e-13 0 0 1.21137e-27
6547 219 0.0015 0.209882 -1.80404 0 4.36859e-14 -6.63424e-13 0 3.51396e-21 3.73135e-27
10212 341 0.0015 0.281297 -1.80475 0 7.54291e-13 -5.65284e-12 0 0 3.06224e-26