ITEM: TIMESTEP
68800
ITEM: NUMBER OF ATOMS
10500
ITEM: BOX BOUNDS pp pp pp
-1.0249999999999999e+00 1.0249999999999999e+00
-2.0000000000000000e+00 2.0000000000000000e+00
-5.0000000000000003e-02 5.0000000000000003e-02
ITEM: ATOMS id type radius x y z fx fy fz c_bendingE c_stretchingE
10321 345 0.0015 -0.0605191 -1.90326 0 -5.57849e-13 3.34897e-12 0 0 1.01545e-26
6031 202 0.0015 -0.31342 -1.90111 0 -5.68029e-13 8.92006e-13 0 0 2.82769e-27
10322 345 0.0015 -0.061196 -1.90016 0 -6.05226e-13 7.01947e-13 0 0 2.57746e-26
8041 269 0.0015 0.155487 -1.90065 0 3.79641e-13 -3.77047e-12 0 0 2.70248e-26
10261 343 0.0015 0.417684 -1.90089 0 2.2273e-13 3.71993e-13 0 0 1.84043e-28
1471 50 0.0015 0.556864 -1.90052 0 -2.66101e-12 -3.74853e-12 0 0 2.14903e-26
10323 345 0.0015 -0.0618728 -1.89705 0 2.0848e-12 -8.16062e-12 0 0 3.1285e-26
1951 66 0.0015 0.0156385 -1.89738 0 9.51889e-14 -6.15418e-13 0 0 5.15905e-28
10262 343 0.0015 0.418405 -1.89694 0 -9.86527e-13 -3.25296e-12 0 0 1.00454e-26
1472 50 0.0015 0.559091 -1.8976 0 5.04608e-12 7.15753e-12 0 0 3.9084e-26
2641 89 0.0015 -0.570912 -1.89491 0 -1.2737e-12 8.43119e-13 0 0 3.02491e-27
1473 50 0.0015 0.561317 -1.89469 0 -1.50489e-12 -2.34001e-12 0 0 1.95435e-26
2642 89 0.0015 -0.574633 -1.89206 0 2.67074e-12 -1.71279e-12 0 0 6.51941e-27
6032 202 0.0015 -0.318223 -1.89337 0 3.7126e-13 -5.22235e-13 0 2.74394e-21 3.2694e-27
10324 345 0.0015 -0.0625496 -1.89394 0 -1.63297e-12 8.02815e-12 0 0 2.96538e-26
1952 66 0.0015 0.0151583 -1.8926 0 -2.42363e-13 1.63381e-12 0 0 1.92585e-27
8042 269 0.0015 0.154791 -1.89391 0 -7.51604e-13 7.61309e-12 0 0 5.50714e-26
10263 343 0.0015 0.419126 -1.89298 0 1.19844e-12 4.5782e-12 0 1.24237e-20 1.32731e-26
3540 118 0.0015 0.637977 -1.89243 0 -3.47818e-14 -6.04569e-13 0 1.57149e-20 1.35709e-28
6061 203 0.0015 -0.387409 -1.89062 0 8.63474e-12 -2.37185e-12 0 0 4.34282e-26
10325 345 0.0015 -0.0632265 -1.89084 0 9.14247e-13 -5.15452e-12 0 0 1.53708e-26
10231 342 0.0015 0.215 -1.89 0 1.5155e-12 0 0 0 4.39732e-28
10232 342 0.0015 0.21569 -1.89 0 -1.84772e-12 0 0 0 4.60875e-28
10233 342 0.0015 0.216379 -1.89 0 7.24418e-14 0 0 0 3.40706e-29
10234 342 0.0015 0.217069 -1.89 0 -1.01441e-12 0 0 0 3.23843e-28
10235 342 0.0015 0.217759 -1.89 0 4.38275e-12 0 0 0 2.16236e-27
10236 342 0.0015 0.218448 -1.89 0 -4.59985e-12 0 0 0 2.27748e-27
10237 342 0.0015 0.219138 -1.89 0 3.91232e-12 0 0 0 1.5485e-27
10238 342 0.0015 0.219828 -1.89 0 -7.5342e-12 0 0 0 6.13141e-27
10239 342 0.0015 0.220517 -1.89 0 1.18447e-11 0 0 0 1.3688e-26
10240 342 0.0015 0.221207 -1.89 0 -1.28958e-11 0 0 0 1.59573e-26
10241 342 0.0015 0.221897 -1.89 0 1.26051e-11 0 0 0 1.52261e-26
10242 342 0.0015 0.222586 -1.89 0 -1.49228e-11 0 0 0 2.17302e-26
10243 342 0.0015 0.223276 -1.89 0 1.64808e-11 0 0 0 2.60386e-26
10244 342 0.0015 0.223966 -1.89 0 -1.51046e-11 0 0 0 2.19285e-26
10245 342 0.0015 0.224655 -1.89 0 1.43075e-11 0 0 0 1.96081e-26
10246 342 0.0015 0.225345 -1.89 0 -1.43075e-11 0 0 0 1.96081e-26
10247 342 0.0015 0.226034 -1.89 0 1.51046e-11 0 0 0 2.19285e-26
10248 342 0.0015 0.226724 -1.89 0 -1.64808e-11 0 0 0 2.60386e-26
10249 342 0.0015 0.227414 -1.89 0 1.49228e-11 0 0 0 2.17302e-26
10250 342 0.0015 0.228103 -1.89 0 -1.26051e-11 0 0 0 1.52261e-26
10251 342 0.0015 0.228793 -1.89 0 1.28958e-11 0 0 0 1.59573e-26
10252 342 0.0015 0.229483 -1.89 0 -1.18447e-11 0 0 0 1.3688e-26
10253 342 0.0015 0.230172 -1.89 0 7.5342e-12 0 0 0 6.13141e-27
10254 342 0.0015 0.230862 -1.89 0 -3.91232e-12 0 0 0 1.5485e-27
10255 342 0.0015 0.231552 -1.89 0 4.59985e-12 0 0 0 2.27748e-27
10256 342 0.0015 0.232241 -1.89 0 -4.38275e-12 0 0 0 2.16236e-27
10257 342 0.0015 0.232931 -1.89 0 1.01441e-12 0 0 0 3.23843e-28
10258 342 0.0015 0.233621 -1.89 0 -7.24418e-14 0 0 0 3.40706e-29
10259 342 0.0015 0.23431 -1.89 0 1.84772e-12 0 0 0 4.60875e-28
10260 342 0.0015 0.235 -1.89 0 -1.5155e-12 0 0 0 4.39732e-28
6001 201 0.0015 0.490936 -1.89052 0 -2.93364e-13 -7.66789e-13 0 5.99535e-21 1.5602e-27
1474 50 0.0015 0.563543 -1.89178 0 -8.40405e-13 -1.20437e-12 0 0 1.95693e-27
3539 118 0.0015 0.640514 -1.89051 0 -1.45166e-12 3.69741e-13 0 1.57149e-20 1.69262e-27
2643 89 0.0015 -0.578354 -1.8892 0 -1.85884e-12 1.31471e-12 0 0 4.02364e-27
6063 203 0.0015 -0.391043 -1.8889 0 -4.34356e-13 5.61445e-12 0 0 2.86727e-27
6064 203 0.0015 -0.392859 -1.88804 0 1.35706e-12 -6.75922e-12 0 0 4.76338e-27
6062 203 0.0015 -0.389226 -1.88976 0 -9.09213e-12 -3.78579e-14 0 0 4.36426e-26
10264 343 0.0015 0.419847 -1.88903 0 -8.55972e-13 -3.03621e-12 0 1.24237e-20 5.5788e-27
1475 50 0.0015 0.56577 -1.88887 0 -1.49118e-12 -6.8267e-13 0 0 2.395e-27
3538 118 0.0015 0.643052 -1.8886 0 -2.89754e-12 -3.39876e-12 0 3.14298e-20 3.01299e-26
2644 89 0.0015 -0.582074 -1.88635 0 1.9419e-12 -1.86179e-12 0 0 5.9335e-27
6066 203 0.0015 -0.396492 -1.88631 0 6.79402e-12 -9.14931e-12 0 0 3.37469e-26
6065 203 0.0015 -0.394676 -1.88717 0 -6.15475e-12 8.467e-12 0 0 3.14349e-26
7981 267 0.0015 -0.194876 -1.88635 0 3.40905e-12 -2.28503e-13 0 0 7.3834e-27
10326 345 0.0015 -0.0639033 -1.88773 0 -1.85e-13 1.65387e-12 0 1.57149e-20 1.52632e-27
1953 66 0.0015 0.0146782 -1.88782 0 1.41964e-13 -9.03921e-13 0 0 1.42741e-27
8043 269 0.0015 0.154095 -1.88717 0 5.96137e-13 -6.34184e-12 0 3.6872e-21 3.98935e-26
3537 118 0.0015 0.645589 -1.88668 0 1.0285e-11 8.53655e-12 0 3.14298e-20 8.04411e-26
6068 203 0.0015 -0.400126 -1.88459 0 -2.52087e-12 -2.56524e-12 0 2.48474e-20 7.17956e-28
6067 203 0.0015 -0.398309 -1.88545 0 1.74574e-12 7.60161e-12 0 0 5.13943e-27
6033 202 0.0015 -0.323025 -1.88564 0 -5.68021e-13 7.84819e-13 0 2.74394e-21 5.28775e-27
7983 267 0.0015 -0.199527 -1.8846 0 -7.24334e-12 1.31322e-12 0 0 2.96809e-26
7982 267 0.0015 -0.197202 -1.88548 0 -2.88756e-12 -4.40459e-13 0 0 7.74586e-27
10327 345 0.0015 -0.0645802 -1.88463 0 1.15658e-12 -7.08326e-12 0 3.14298e-20 4.05319e-26
10265 343 0.0015 0.420568 -1.88507 0 1.18902e-12 4.06512e-12 0 1.24237e-20 1.10476e-26
1476 50 0.0015 0.567996 -1.88596 0 1.83054e-12 -3.74549e-13 0 0 2.91159e-27
3536 118 0.0015 0.648126 -1.88476 0 -7.2882e-12 -6.77098e-12 0 3.14298e-20 5.627e-26
2645 89 0.0015 -0.585795 -1.88349 0 -4.02121e-12 3.50433e-12 0 0 1.94791e-26
6071 203 0.0015 -0.405575 -1.882 0 1.36397e-11 1.14971e-11 0 0 3.02355e-26
6070 203 0.0015 -0.403759 -1.88287 0 7.03509e-13 -1.45491e-12 0 2.48474e-20 9.39933e-28
6069 203 0.0015 -0.401942 -1.88373 0 -2.95161e-12 -3.30138e-12 0 2.48474e-20 9.40282e-28
7985 267 0.0015 -0.204179 -1.88284 0 -3.2922e-12 -1.66243e-12 0 0 9.71766e-27
7984 267 0.0015 -0.201853 -1.88372 0 1.08197e-11 5.04244e-14 0 0 3.82065e-26
1954 66 0.0015 0.0141981 -1.88304 0 -3.2513e-13 3.35555e-12 0 5.20104e-21 1.62271e-26
6002 201 0.0015 0.493952 -1.88275 0 4.59137e-13 1.10378e-12 0 1.19907e-20 1.88423e-27
1477 50 0.0015 0.570222 -1.88304 0 -3.02109e-12 -1.21633e-12 0 0 1.31278e-26
3535 118 0.0015 0.650663 -1.88285 0 2.30019e-12 2.50448e-12 0 3.14298e-20 5.49426e-27
2646 89 0.0015 -0.589516 -1.88064 0 4.33634e-12 -3.58059e-12 0 5.32605e-21 2.11667e-26
6073 203 0.0015 -0.409209 -1.88028 0 1.34994e-12 1.99003e-11 0 2.48474e-20 3.92821e-26
6072 203 0.0015 -0.407392 -1.88114 0 -1.73227e-11 -1.69807e-11 0 0 3.08095e-26
7988 267 0.0015 -0.211156 -1.8802 0 -5.62959e-12 -3.60024e-12 0 0 6.29999e-27
7987 267 0.0015 -0.208831 -1.88108 0 4.8859e-12 2.79381e-12 0 0 5.71526e-27
7986 267 0.0015 -0.206505 -1.88196 0 -2.13256e-12 -2.04385e-13 0 0 1.30137e-27
8011 268 0.0015 -0.176367 -1.88159 0 -3.36114e-13 -9.40137e-13 0 1.90242e-21 3.63584e-27
10328 345 0.0015 -0.065257 -1.88152 0 -2.40046e-12 1.37787e-11 0 3.14298e-20 8.63094e-26
8044 269 0.0015 0.1534 -1.88043 0 -2.42911e-13 2.92751e-12 0 3.6872e-21 1.21915e-26
10266 343 0.0015 0.421289 -1.88111 0 -6.94351e-13 -1.43091e-12 0 0 1.0732e-26
1478 50 0.0015 0.572449 -1.88013 0 2.63052e-12 2.65906e-12 0 0 1.26416e-26
3534 118 0.0015 0.653201 -1.88093 0 -4.81781e-13 1.47685e-12 0 1.57149e-20 3.40291e-27
10292 344 0.0015 -0.465124 -1.8785 0 -3.00587e-14 -4.49045e-12 0 1.68424e-20 8.08842e-28
10291 344 0.0015 -0.4623 -1.87941 0 -3.99316e-13 1.59739e-12 0 0 6.21996e-28
6074 203 0.0015 -0.411025 -1.87942 0 6.45773e-12 -1.76034e-11 0 2.48474e-20 5.29797e-26
6075 203 0.0015 -0.412842 -1.87856 0 -4.6175e-12 1.48217e-11 0 2.48474e-20 3.09834e-26
7990 267 0.0015 -0.215808 -1.87844 0 1.50532e-12 -2.63576e-12 0 1.00459e-20 2.18307e-27
7989 267 0.0015 -0.213482 -1.87932 0 1.0588e-12 3.90973e-12 0 0 2.89047e-27
10329 345 0.0015 -0.0659339 -1.87841 0 1.62583e-12 -1.02032e-11 0 1.57149e-20 5.44321e-26
1955 66 0.0015 0.0137179 -1.87827 0 8.76287e-13 -9.28583e-12 0 5.20104e-21 6.17307e-26
10201 341 0.0015 0.290108 -1.87875 0 -3.54171e-13 3.21215e-12 0 0 1.96516e-26
3533 118 0.0015 0.655738 -1.87902 0 -9.21737e-13 -5.36524e-12 0 1.57149e-20 7.19097e-27
2647 89 0.0015 -0.593237 -1.87778 0 -3.84608e-12 3.34513e-12 0 1.06521e-20 1.69773e-26
10294 344 0.0015 -0.470773 -1.87669 0 5.6357e-13 -5.27965e-12 0 1.68424e-20 2.11085e-27
10293 344 0.0015 -0.467948 -1.87759 0 5.78835e-13 5.72614e-12 0 1.68424e-20 6.1918e-28
6077 203 0.0015 -0.416475 -1.87683 0 -4.23268e-12 1.37528e-11 0 0 3.95118e-26
6076 203 0.0015 -0.414658 -1.87769 0 6.91904e-12 -1.75139e-11 0 0 5.50796e-26
6034 202 0.0015 -0.327828 -1.87791 0 2.53117e-12 -3.91427e-12 0 2.74394e-21 3.199e-26
7992 267 0.0015 -0.22046 -1.87668 0 -1.7208e-12 -2.56609e-12 0 3.01377e-20 1.79749e-28
7991 267 0.0015 -0.218134 -1.87756 0 3.1055e-13 1.60248e-12 0 2.00918e-20 4.79471e-28
10267 343 0.0015 0.42201 -1.87716 0 -1.31083e-12 -8.38153e-12 0 0 5.96515e-26
1479 50 0.0015 0.574675 -1.87722 0 2.54897e-13 -7.82358e-13 0 0 1.14412e-28
3532 118 0.0015 0.658275 -1.8771 0 3.26909e-12 7.52468e-12 0 1.57149e-20 2.51597e-26
2648 89 0.0015 -0.596958 -1.87493 0 3.61448e-12 -3.3022e-12 0 1.06521e-20 1.57588e-26
10296 344 0.0015 -0.476421 -1.87487 0 -2.04454e-12 1.58795e-12 0 0 3.5617e-27
10295 344 0.0015 -0.473597 -1.87578 0 1.42466e-12 2.42388e-12 0 0 5.11479e-27
6080 203 0.0015 -0.421925 -1.87425 0 1.25233e-11 1.38775e-11 0 0 8.17935e-27
6079 203 0.0015 -0.420108 -1.87511 0 -5.15952e-12 -7.73182e-12 0 0 6.73368e-27
6078 203 0.0015 -0.418291 -1.87597 0 -1.02342e-12 -1.55838e-12 0 0 2.73327e-27
7995 267 0.0015 -0.227437 -1.87404 0 1.69818e-12 1.32542e-12 0 1.00459e-20 1.1468e-27
7994 267 0.0015 -0.225111 -1.87492 0 -3.04906e-12 -8.75342e-13 0 2.00918e-20 2.23213e-27
7993 267 0.0015 -0.222785 -1.8758 0 2.52599e-12 2.35134e-12 0 3.01377e-20 1.15219e-27
10330 345 0.0015 -0.0666107 -1.87531 0 -1.62774e-13 2.76092e-12 0 1.57149e-20 8.63236e-27
6003 201 0.0015 0.496967 -1.87498 0 -6.78364e-13 -1.50525e-12 0 1.7986e-20 4.08445e-27
1480 50 0.0015 0.576901 -1.87431 0 -3.29393e-13 9.49904e-13 0 0 1.56576e-28
3531 118 0.0015 0.660812 -1.87519 0 -8.31535e-12 -8.99e-12 0 1.57149e-20 6.68399e-26
2649 89 0.0015 -0.600679 -1.87207 0 -1.34283e-12 1.45812e-12 0 5.32605e-21 5.91121e-27
10299 344 0.0015 -0.484893 -1.87215 0 2.87168e-12 -1.1489e-12 0 1.68424e-20 4.04648e-27
10298 344 0.0015 -0.482069 -1.87306 0 -1.78862e-12 4.25261e-12 0 0 3.88123e-27
10297 344 0.0015 -0.479245 -1.87396 0 2.94259e-13 -4.23777e-12 0 0 1.28508e-27
6082 203 0.0015 -0.425558 -1.87252 0 5.12392e-12 6.96401e-12 0 0 2.70592e-27
6081 203 0.0015 -0.423741 -1.87338 0 -1.13985e-11 -1.35852e-11 0 0 5.60235e-27
7997 267 0.0015 -0.232089 -1.87228 0 5.16131e-12 7.67901e-13 0 0 7.39595e-27
7996 267 0.0015 -0.229763 -1.87316 0 -2.51326e-12 -1.80246e-12 0 0 2.43883e-27
10331 345 0.0015 -0.0672875 -1.8722 0 -4.45229e-13 1.47339e-12 0 1.57149e-20 1.31545e-27
1956 66 0.0015 0.0132378 -1.87349 0 -7.9023e-13 8.71051e-12 0 1.04021e-20 5.67769e-26
8045 269 0.0015 0.152704 -1.87369 0 -1.81928e-13 1.51468e-12 0 3.6872e-21 7.52472e-27
10202 341 0.0015 0.289307 -1.87202 0 7.50967e-13 -7.03388e-12 0 0 4.74277e-26
4531 152 0.0015 0.366216 -1.8733 0 8.18873e-14 -5.18854e-13 0 0 6.68601e-28
10268 343 0.0015 0.422731 -1.8732 0 2.12232e-12 1.25008e-11 0 0 9.14121e-26
3530 118 0.0015 0.66335 -1.87327 0 4.28363e-12 3.52176e-12 0 3.14298e-20 4.91744e-26
10301 344 0.0015 -0.490541 -1.87033 0 -1.56787e-13 2.59403e-12 0 3.36849e-20 6.86105e-27
10300 344 0.0015 -0.487717 -1.87124 0 -3.3884e-12 -1.45165e-12 0 3.36849e-20 3.21325e-27
6084 203 0.0015 -0.429191 -1.8708 0 6.01958e-12 8.10753e-13 0 0 8.39329e-27
6083 203 0.0015 -0.427374 -1.87166 0 -2.43365e-12 -2.7289e-12 0 0 1.44422e-27
6035 202 0.0015 -0.332631 -1.87017 0 -3.32544e-12 5.21124e-12 0 0 4.84868e-26
7999 267 0.0015 -0.23674 -1.87052 0 1.36283e-11 1.42165e-12 0 0 5.37877e-26
7998 267 0.0015 -0.234415 -1.8714 0 -8.28342e-12 -4.2001e-13 0 0 2.16644e-26
1481 50 0.0015 0.579128 -1.8714 0 2.91314e-12 2.98505e-12 0 0 1.99749e-26
3529 118 0.0015 0.665887 -1.87136 0 4.64116e-12 3.73e-12 0 1.57149e-20 1.84233e-26
2650 89 0.0015 -0.6044 -1.86922 0 -5.52756e-13 6.10366e-14 0 0 1.59295e-28
10303 344 0.0015 -0.49619 -1.86852 0 -3.37769e-12 6.6859e-13 0 1.68424e-20 7.35909e-27
10302 344 0.0015 -0.493366 -1.86943 0 4.92915e-12 -2.33814e-12 0 1.68424e-20 1.21507e-26
6087 203 0.0015 -0.434641 -1.86821 0 -7.9711e-12 1.81049e-11 0 0 9.06891e-26
6085 203 0.0015 -0.431008 -1.86994 0 -8.74364e-12 4.81616e-12 0 0 2.99762e-26
6086 203 0.0015 -0.432824 -1.86908 0 1.31658e-11 -1.63533e-11 0 0 1.102e-25
8001 267 0.0015 -0.241392 -1.86876 0 1.43994e-12 3.47152e-12 0 0 1.3823e-27
8000 267 0.0015 -0.239066 -1.86964 0 -1.02158e-11 -3.30389e-12 0 0 3.78709e-26
8012 268 0.0015 -0.171924 -1.86923 0 7.33169e-13 2.05459e-12 0 1.90242e-21 8.74093e-27
10332 345 0.0015 -0.0679644 -1.86909 0 -4.77198e-13 7.33533e-15 0 1.57149e-20 2.62025e-27
1957 66 0.0015 0.0127576 -1.86871 0 3.05623e-13 -3.81229e-12 0 5.20104e-21 1.23829e-26
10269 343 0.0015 0.423451 -1.86924 0 -6.27667e-13 -5.03104e-12 0 0 3.38122e-26
1482 50 0.0015 0.581354 -1.86848 0 -3.78136e-12 -4.40391e-12 0 6.81478e-21 2.182e-26
3528 118 0.0015 0.668424 -1.86944 0 -1.72336e-12 -8.58447e-13 0 1.57149e-20 2.06386e-26
2651 89 0.0015 -0.608121 -1.86636 0 -1.64981e-12 1.34131e-12 0 5.32605e-21 7.81989e-27
10305 344 0.0015 -0.501838 -1.8667 0 -2.71901e-12 6.00461e-14 0 1.68424e-20 2.86367e-27
10304 344 0.0015 -0.499014 -1.86761 0 1.6585e-12 9.92348e-15 0 1.68424e-20 1.19108e-27
6089 203 0.0015 -0.438274 -1.86649 0 7.1828e-12 1.20468e-12 0 0 9.98496e-27
6088 203 0.0015 -0.436457 -1.86735 0 -4.24891e-12 -8.0492e-12 0 0 7.90578e-27
8004 267 0.0015 -0.248369 -1.86612 0 -6.19827e-12 -2.25381e-12 0 2.00918e-20 1.00417e-26
8003 267 0.0015 -0.246044 -1.867 0 4.87426e-12 2.51098e-12 0 1.00459e-20 4.81772e-27
8002 267 0.0015 -0.243718 -1.86788 0 -2.06609e-12 -1.95531e-12 0 0 3.89165e-27
8046 269 0.0015 0.152008 -1.86695 0 3.2121e-13 -3.35289e-12 0 0 1.09472e-26
6004 201 0.0015 0.499982 -1.86721 0 1.71009e-12 4.21867e-12 0 1.19907e-20 2.86183e-26
3527 118 0.0015 0.670962 -1.86752 0 -3.76126e-12 -3.4826e-12 0 0 1.15648e-26
10307 344 0.0015 -0.507486 -1.86489 0 4.85427e-12 -6.56367e-13 0 0 9.58662e-27
10306 344 0.0015 -0.504662 -1.8658 0 -8.41189e-13 5.56135e-13 0 0 6.88411e-27
6090 203 0.0015 -0.440091 -1.86563 0 -3.31162e-12 3.11607e-13 0 0 5.45616e-27
8006 267 0.0015 -0.253021 -1.86436 0 -4.48942e-12 6.00095e-12 0 2.00918e-20 1.84945e-26
8005 267 0.0015 -0.250695 -1.86524 0 8.28626e-12 -2.15581e-12 0 2.00918e-20 2.58007e-26
10333 345 0.0015 -0.0686412 -1.86599 0 2.69053e-12 -6.30606e-12 0 0 2.77838e-26
10203 341 0.0015 0.288506 -1.8653 0 -5.13219e-13 5.28494e-12 0 0 3.18244e-26
4532 152 0.0015 0.364868 -1.86469 0 1.31936e-13 -8.59561e-13 0 5.72705e-21 5.38349e-27
10270 343 0.0015 0.424172 -1.86529 0 -2.65753e-13 1.35562e-12 0 1.24237e-20 3.46437e-27
1483 50 0.0015 0.58358 -1.86557 0 6.75675e-13 6.47255e-13 0 6.81478e-21 2.1312e-27
3526 118 0.0015 0.673499 -1.86561 0 2.54564e-12 2.09337e-12 0 0 6.98493e-27
2652 89 0.0015 -0.611842 -1.86351 0 5.13135e-12 -3.47984e-12 0 5.32605e-21 2.61027e-26
10310 344 0.0015 -0.515959 -1.86217 0 -5.21614e-12 3.01386e-13 0 0 1.62378e-26
10309 344 0.0015 -0.513134 -1.86307 0 1.34391e-12 4.24315e-14 0 0 6.63023e-28
10308 344 0.0015 -0.51031 -1.86398 0 -3.01419e-12 2.56259e-13 0 0 4.84947e-27
6036 202 0.0015 -0.337434 -1.86244 0 3.58655e-12 -5.66056e-12 0 0 5.77767e-26
8008 267 0.0015 -0.257673 -1.8626 0 4.48804e-12 7.72148e-12 0 2.00918e-20 1.81231e-27
8007 267 0.0015 -0.255347 -1.86348 0 -2.93863e-12 -6.93616e-12 0 2.00918e-20 2.99768e-27
10334 345 0.0015 -0.0693181 -1.86288 0 -3.15616e-12 6.79658e-12 0 1.57149e-20 2.93778e-26
1958 66 0.0015 0.0122775 -1.86393 0 -9.56234e-14 1.38967e-12 0 5.20104e-21 1.42571e-27
1484 50 0.0015 0.585807 -1.86266 0 1.08969e-12 1.38893e-12 0 6.81478e-21 1.96701e-27
3525 118 0.0015 0.676036 -1.86369 0 -2.54564e-12 -2.09337e-12 0 0 6.98493e-27
2653 89 0.0015 -0.615563 -1.86065 0 -4.57005e-12 3.02148e-12 0 1.06521e-20 2.21983e-26
10312 344 0.0015 -0.521607 -1.86035 0 -1.02153e-11 4.71668e-12 0 0 6.49126e-26
10311 344 0.0015 -0.518783 -1.86126 0 1.24622e-11 -3.17896e-12 0 0 7.46861e-26
8010 267 0.0015 -0.262324 -1.86085 0 -1.70496e-12 2.72947e-12 0 0 4.52773e-27
8009 267 0.0015 -0.259998 -1.86172 0 2.73326e-13 -6.92969e-12 0 1.00459e-20 4.54261e-27
8047 269 0.0015 0.151313 -1.86021 0 -1.23248e-13 1.77951e-12 0 0 4.02189e-27
10271 343 0.0015 0.424893 -1.86133 0 3.25744e-13 -2.60809e-12 0 1.24237e-20 3.97553e-27
3524 118 0.0015 0.678573 -1.86178 0 3.76126e-12 3.4826e-12 0 0 1.15648e-26
10314 344 0.0015 -0.527255 -1.85854 0 1.22784e-11 -4.02539e-12 0 0 6.8786e-26
10313 344 0.0015 -0.524431 -1.85944 0 -4.10412e-12 -4.37604e-13 0 0 4.08343e-26
10335 345 0.0015 -0.0699949 -1.85978 0 5.49192e-13 1.65378e-12 0 1.57149e-20 1.29227e-26
1959 66 0.0015 0.0117974 -1.85915 0 2.98928e-13 -3.11104e-12 0 0 9.68321e-27
4771 160 0.0015 0.0785585 -1.85825 0 1.66808e-14 -5.90586e-13 0 0 8.92192e-28
10204 341 0.0015 0.287705 -1.85857 0 2.3871e-13 -2.90992e-12 0 0 8.01062e-27
6005 201 0.0015 0.502997 -1.85945 0 -1.04787e-12 -2.70212e-12 0 1.19907e-20 2.51901e-26
1485 50 0.0015 0.588033 -1.85975 0 -3.17196e-12 -4.2641e-12 0 0 1.80446e-26
3523 118 0.0015 0.681111 -1.85986 0 1.72336e-12 8.58447e-13 0 1.57149e-20 2.06386e-26
2654 89 0.0015 -0.619284 -1.8578 0 1.33052e-12 -9.89992e-13 0 1.06521e-20 3.79703e-27
10316 344 0.0015 -0.532903 -1.85672 0 2.89908e-12 -2.97947e-12 0 0 5.98838e-27
10315 344 0.0015 -0.530079 -1.85763 0 -8.03756e-12 3.67818e-12 0 0 3.85943e-26
8013 268 0.0015 -0.167482 -1.85688 0 -7.68342e-14 -2.24702e-13 0 1.90242e-21 8.3666e-27
10336 345 0.0015 -0.0706718 -1.85667 0 2.78412e-13 -3.84971e-14 0 3.14298e-20 1.92388e-26
4533 152 0.0015 0.36352 -1.85607 0 -4.7414e-13 3.02996e-12 0 1.14541e-20 1.14887e-26
10272 343 0.0015 0.425614 -1.85738 0 -1.23714e-12 -2.34303e-12 0 2.48474e-20 1.30602e-26
1486 50 0.0015 0.59026 -1.85684 0 3.17196e-12 4.2641e-12 0 0 1.80446e-26
3522 118 0.0015 0.683648 -1.85795 0 -4.64116e-12 -3.73e-12 0 1.57149e-20 1.84233e-26
3521 118 0.0015 0.686185 -1.85603 0 -4.28363e-12 -3.52176e-12 0 3.14298e-20 4.91744e-26
2655 89 0.0015 -0.623004 -1.85494 0 -5.24548e-13 9.21267e-13 0 1.59781e-20 1.37252e-27
10318 344 0.0015 -0.538552 -1.85491 0 3.98506e-12 -4.85299e-12 0 0 1.86245e-26
10317 344 0.0015 -0.535727 -1.85581 0 -6.88869e-13 3.99897e-12 0 0 1.69596e-27
6037 202 0.0015 -0.342237 -1.85471 0 -2.64392e-12 4.13212e-12 0 0 3.95463e-26
1960 66 0.0015 0.0113172 -1.85437 0 -1.92803e-13 1.92337e-12 0 0 1.00747e-26
3520 118 0.0015 0.688722 -1.85412 0 8.31535e-12 8.99e-12 0 1.57149e-20 6.68399e-26
2656 89 0.0015 -0.626725 -1.85209 0 2.50257e-12 -3.02061e-12 0 1.59781e-20 1.15763e-26
10320 344 0.0015 -0.5442 -1.85309 0 5.01322e-12 -1.79699e-12 0 0 2.33434e-26
10319 344 0.0015 -0.541376 -1.854 0 -9.13494e-12 4.40373e-12 0 0 4.17123e-26
10337 345 0.0015 -0.0713486 -1.85356 0 1.30453e-12 -9.215e-12 0 1.57149e-20 4.14458e-26
8048 269 0.0015 0.150617 -1.85348 0 9.2455e-15 -6.6581e-13 0 0 4.18862e-28
10273 343 0.0015 0.426335 -1.85342 0 7.17944e-13 2.56945e-12 0 2.48474e-20 1.28478e-26
1487 50 0.0015 0.592486 -1.85392 0 -1.08969e-12 -1.38893e-12 0 6.81478e-21 1.96701e-27
3519 118 0.0015 0.69126 -1.8522 0 -3.26909e-12 -7.52468e-12 0 1.57149e-20 2.51597e-26
10338 345 0.0015 -0.0720254 -1.85046 0 -8.0075e-14 2.26067e-12 0 1.57149e-20 4.48874e-26
10205 341 0.0015 0.286904 -1.85184 0 -6.2258e-13 5.89747e-12 0 0 4.17103e-26
6006 201 0.0015 0.506013 -1.85168 0 -1.96586e-12 -4.96187e-12 0 5.99535e-21 5.72366e-26
1488 50 0.0015 0.594712 -1.85101 0 -6.75675e-13 -6.47255e-13 0 6.81478e-21 2.1312e-27
3518 118 0.0015 0.693797 -1.85028 0 9.21737e-13 5.36524e-12 0 1.57149e-20 7.19097e-27
2657 89 0.0015 -0.630446 -1.84923 0 -8.43741e-13 1.78372e-12 0 1.06521e-20 1.16261e-26
1961 66 0.0015 0.0108371 -1.84959 0 -3.92231e-13 3.5842e-12 0 0 1.1804e-26
4772 160 0.0015 0.0782973 -1.84905 0 -5.64986e-14 2.08477e-12 0 0 6.60243e-27
10274 343 0.0015 0.427056 -1.84946 0 1.03728e-12 3.30684e-12 0 2.48474e-20 9.07534e-27
1489 50 0.0015 0.596939 -1.8481 0 3.78136e-12 4.40391e-12 0 6.81478e-21 2.182e-26
3517 118 0.0015 0.696334 -1.84837 0 4.81781e-13 -1.47685e-12 0 1.57149e-20 3.40291e-27
2658 89 0.0015 -0.634167 -1.84638 0 -3.61022e-12 2.2035e-12 0 5.32605e-21 1.44439e-26
6038 202 0.0015 -0.34704 -1.84697 0 8.00174e-13 -1.16169e-12 0 0 3.33942e-27
10339 345 0.0015 -0.0727023 -1.84735 0 -1.43561e-12 5.2094e-12 0 0 1.50158e-26
8049 269 0.0015 0.149922 -1.84674 0 1.00948e-14 2.2577e-13 0 0 1.73826e-28
6541 219 0.0015 0.213251 -1.84656 0 4.04762e-14 -4.66276e-13 0 0 4.32527e-28
4534 152 0.0015 0.362172 -1.84745 0 3.58285e-13 -2.24524e-12 0 1.14541e-20 7.65107e-27
3516 118 0.0015 0.698871 -1.84645 0 -2.30019e-12 -2.50448e-12 0 3.14298e-20 5.49426e-27
8014 268 0.0015 -0.163039 -1.84452 0 -7.21642e-13 -2.01338e-12 0 0 8.45419e-27
10340 345 0.0015 -0.0733791 -1.84424 0 6.63401e-13 -5.31719e-13 0 0 3.00233e-27
1962 66 0.0015 0.010357 -1.84481 0 -7.41212e-14 1.83579e-12 0 0 4.08397e-26
10206 341 0.0015 0.286103 -1.84511 0 1.10339e-12 -9.56658e-12 0 0 8.76846e-26
10275 343 0.0015 0.427777 -1.84551 0 -1.30446e-12 -3.13447e-12 0 1.24237e-20 8.91015e-27
1490 50 0.0015 0.599165 -1.84519 0 -2.91314e-12 -2.98505e-12 0 0 1.99749e-26
3515 118 0.0015 0.701409 -1.84454 0 7.2882e-12 6.77098e-12 0 3.14298e-20 5.627e-26
2659 89 0.0015 -0.637888 -1.84352 0 5.41233e-12 -3.80892e-12 0 0 2.85385e-26
6007 201 0.0015 0.509028 -1.84391 0 2.47381e-12 6.2079e-12 0 5.99535e-21 6.3786e-26
1491 50 0.0015 0.601391 -1.84228 0 3.29393e-13 -9.49904e-13 0 0 1.56576e-28
3514 118 0.0015 0.703946 -1.84262 0 -1.0285e-11 -8.53655e-12 0 3.14298e-20 8.04411e-26
2660 89 0.0015 -0.641609 -1.84066 0 -4.61451e-12 2.85199e-12 0 0 2.04492e-26
10341 345 0.0015 -0.074056 -1.84114 0 -1.40871e-12 4.69816e-12 0 1.57149e-20 3.06908e-26
1963 66 0.0015 0.00987681 -1.84004 0 9.86105e-13 -1.13494e-11 0 5.20104e-21 8.90946e-26
10276 343 0.0015 0.428498 -1.84155 0 1.30446e-12 3.13447e-12 0 1.24237e-20 8.91015e-27
3513 118 0.0015 0.706483 -1.84071 0 2.89754e-12 3.39876e-12 0 3.14298e-20 3.01299e-26
6039 202 0.0015 -0.351842 -1.83924 0 -8.99573e-13 1.32e-12 0 0 4.47664e-27
10342 345 0.0015 -0.0747328 -1.83803 0 1.85076e-12 -9.72838e-12 0 1.57149e-20 4.46126e-26
4773 160 0.0015 0.0780361 -1.83985 0 8.76835e-14 -3.33681e-12 0 0 1.43939e-26
8050 269 0.0015 0.149226 -1.84 0 4.6288e-13 -4.55746e-12 0 0 4.07476e-26
6542 219 0.0015 0.21269 -1.83947 0 -9.91395e-14 1.14249e-12 0 3.51396e-21 1.34224e-27
10207 341 0.0015 0.285302 -1.83839 0 -7.97796e-13 6.67681e-12 0 0 5.45933e-26
4535 152 0.0015 0.360823 -1.83883 0 -1.82371e-13 1.15381e-12 0 5.72705e-21 1.65479e-27
1492 50 0.0015 0.603618 -1.83936 0 -2.54897e-13 7.82358e-13 0 0 1.14412e-28
3512 118 0.0015 0.70902 -1.83879 0 1.45166e-12 -3.69741e-13 0 1.57149e-20 1.69262e-27
2661 89 0.0015 -0.64533 -1.83781 0 2.14235e-12 -6.34375e-13 0 0 4.96073e-27
10277 343 0.0015 0.429219 -1.8376 0 -1.03728e-12 -3.30684e-12 0 2.48474e-20 9.07534e-27
6008 201 0.0015 0.512043 -1.83614 0 -4.08719e-13 -8.81589e-13 0 0 8.19931e-27
1493 50 0.0015 0.605844 -1.83645 0 -2.63052e-12 -2.65906e-12 0 0 1.26416e-26
3511 118 0.0015 0.711558 -1.83688 0 3.47818e-14 6.04569e-13 0 1.57149e-20 1.35709e-28
2662 89 0.0015 -0.649051 -1.83495 0 -5.59665e-13 -5.35782e-13 0 0 2.59544e-29
10343 345 0.0015 -0.0754097 -1.83493 0 -7.1811e-13 6.24646e-12 0 1.57149e-20 1.88761e-26
1964 66 0.0015 0.00939668 -1.83526 0 -7.75354e-13 8.53835e-12 0 1.04021e-20 6.41966e-26
2663 89 0.0015 -0.652772 -1.8321 0 7.97956e-13 -2.27865e-13 0 0 8.20745e-28
10171 340 0.0015 -0.234195 -1.83312 0 5.90651e-13 -8.67395e-13 0 0 2.39078e-27
8015 268 0.0015 -0.158597 -1.83216 0 2.13236e-13 6.01346e-13 0 0 6.31678e-27
8051 269 0.0015 0.14853 -1.83326 0 -8.22794e-13 7.8124e-12 0 0 6.00435e-26
6543 219 0.0015 0.212128 -1.83239 0 7.44073e-15 -6.42885e-14 0 3.51396e-21 1.65431e-27
10278 343 0.0015 0.429939 -1.83364 0 -7.17944e-13 -2.56945e-12 0 2.48474e-20 1.28478e-26
1494 50 0.0015 0.60807 -1.83354 0 3.02109e-12 1.21633e-12 0 0 1.31278e-26
6040 202 0.0015 -0.356645 -1.83151 0 7.82803e-13 -1.06629e-12 0 0 4.25093e-27
10344 345 0.0015 -0.0760865 -1.83182 0 -6.32503e-13 3.9103e-13 0 0 1.06018e-26
1965 66 0.0015 0.00891654 -1.83048 0 -3.23815e-14 8.99586e-13 0 1.56031e-20 1.52919e-26
4774 160 0.0015 0.0777749 -1.83066 0 -3.74776e-14 1.53601e-12 0 0 8.92416e-27
10208 341 0.0015 0.284501 -1.83166 0 2.42393e-13 -1.90933e-12 0 0 4.8893e-27
4536 152 0.0015 0.359475 -1.83021 0 5.39146e-16 -8.05214e-14 0 0 1.35173e-27
1495 50 0.0015 0.610297 -1.83063 0 -1.83054e-12 3.74549e-13 0 0 2.91159e-27
2664 89 0.0015 -0.656493 -1.82924 0 -2.74817e-12 2.83724e-12 0 0 1.34542e-26
10345 345 0.0015 -0.0767633 -1.82871 0 2.57378e-12 -1.02762e-11 0 0 6.14402e-26
10279 343 0.0015 0.43066 -1.82968 0 1.23714e-12 2.34303e-12 0 2.48474e-20 1.30602e-26
6009 201 0.0015 0.515058 -1.82837 0 -8.93332e-14 -3.10796e-13 0 0 1.75046e-27
2665 89 0.0015 -0.660213 -1.82639 0 3.52704e-12 -4.33997e-12 0 0 1.96836e-26
10172 340 0.0015 -0.238704 -1.82673 0 -1.19026e-12 1.82331e-12 0 0 5.14771e-27
8052 269 0.0015 0.147835 -1.82652 0 3.08835e-13 -2.71613e-12 0 3.6872e-21 1.97203e-26
1496 50 0.0015 0.612523 -1.82772 0 1.49118e-12 6.8267e-13 0 0 2.395e-27
10346 345 0.0015 -0.0774402 -1.82561 0 -3.07303e-12 1.3732e-11 0 1.57149e-20 8.87297e-26
1966 66 0.0015 0.0084364 -1.8257 0 -1.96915e-14 -1.21111e-12 0 1.56031e-20 1.38689e-26
6544 219 0.0015 0.211567 -1.8253 0 4.59193e-14 -4.15278e-13 0 3.51396e-21 8.20806e-28
10209 341 0.0015 0.2837 -1.82493 0 -9.06235e-15 1.40265e-13 0 3.6872e-21 3.16528e-28
10280 343 0.0015 0.431381 -1.82573 0 -3.25744e-13 2.60809e-12 0 1.24237e-20 3.97553e-27
1497 50 0.0015 0.614749 -1.8248 0 8.40405e-13 1.20437e-12 0 0 1.95693e-27
2666 89 0.0015 -0.663934 -1.82353 0 -2.93628e-12 3.64768e-12 0 5.32605e-21 1.34933e-26
6041 202 0.0015 -0.361448 -1.82377 0 -7.77064e-14 -1.30621e-13 0 2.74394e-21 2.28837e-29
10347 345 0.0015 -0.078117 -1.8225 0 1.84897e-12 -1.04995e-11 0 3.14298e-20 5.13844e-26
2667 89 0.0015 -0.667655 -1.82068 0 3.04768e-12 -2.59045e-12 0 1.06521e-20 1.05296e-26
10173 340 0.0015 -0.243212 -1.82034 0 4.33049e-13 -8.28066e-13 0 0 2.84423e-27
1967 66 0.0015 0.00795626 -1.82092 0 5.20946e-13 -4.00055e-12 0 1.04021e-20 1.13156e-26
4775 160 0.0015 0.0775136 -1.82146 0 -6.07299e-14 2.12759e-12 0 0 8.72231e-27
4537 152 0.0015 0.358127 -1.82159 0 2.63135e-13 -1.65818e-12 0 0 4.01797e-27
10281 343 0.0015 0.432102 -1.82177 0 2.65753e-13 -1.35562e-12 0 1.24237e-20 3.46437e-27
6010 201 0.0015 0.518074 -1.8206 0 3.28918e-13 8.63128e-13 0 0 4.68951e-27
1498 50 0.0015 0.616976 -1.82189 0 1.50489e-12 2.34001e-12 0 0 1.95435e-26
8016 268 0.0015 -0.154154 -1.81981 0 1.08344e-13 2.94742e-13 0 0 1.33618e-27
10348 345 0.0015 -0.0787939 -1.81939 0 8.86612e-14 4.92809e-12 0 3.14298e-20 1.77735e-26
8053 269 0.0015 0.147139 -1.81978 0 -1.88759e-13 1.73245e-12 0 3.6872e-21 9.62342e-27
6545 219 0.0015 0.211005 -1.81821 0 1.61398e-13 -2.27482e-12 0 0 8.65226e-27
10210 341 0.0015 0.282899 -1.8182 0 -2.09766e-13 1.47389e-12 0 3.6872e-21 3.15354e-27
1499 50 0.0015 0.619202 -1.81898 0 -5.04608e-12 -7.15753e-12 0 0 3.9084e-26
2668 89 0.0015 -0.671376 -1.81782 0 3.95768e-13 -1.0079e-12 0 1.06521e-20 1.35727e-26
6042 202 0.0015 -0.366251 -1.81604 0 -6.82717e-13 1.3186e-12 0 5.48788e-21 4.89289e-27
10349 345 0.0015 -0.0794707 -1.81629 0 -1.59064e-12 1.79482e-12 0 1.57149e-20 5.23675e-27
1968 66 0.0015 0.00747613 -1.81614 0 -1.55397e-13 1.10531e-12 0 2.08041e-20 1.02346e-26
10282 343 0.0015 0.432823 -1.81781 0 6.27667e-13 5.03104e-12 0 0 3.38122e-26
1500 50 0.0015 0.621428 -1.81607 0 2.66101e-12 3.74853e-12 0 0 2.14903e-26
2669 89 0.0015 -0.675097 -1.81497 0 -5.75932e-12 5.19454e-12 0 5.32605e-21 4.24881e-26
5941 199 0.0015 0.740778 -1.81551 0 5.69381e-14 3.08175e-13 0 0 2.61199e-28
2670 89 0.0015 -0.678818 -1.81211 0 3.86071e-12 -3.23613e-12 0 0 3.30012e-26
10174 340 0.0015 -0.24772 -1.81396 0 1.09406e-12 -1.41919e-12 0 6.39056e-21 5.57632e-27
10350 345 0.0015 -0.0801475 -1.81318 0 9.31852e-13 -2.26742e-12 0 0 5.14544e-27
4776 160 0.0015 0.0772524 -1.81226 0 8.8336e-14 -3.23255e-12 0 0 1.35781e-26
8054 269 0.0015 0.146443 -1.81304 0 4.08672e-13 -4.17292e-12 0 3.6872e-21 1.65918e-26
4538 152 0.0015 0.356779 -1.81297 0 -8.91965e-17 1.44e-13 0 0 6.1145e-27
10283 343 0.0015 0.433544 -1.81386 0 -2.12232e-12 -1.25008e-11 0 0 9.14121e-26
6011 201 0.0015 0.521089 -1.81283 0 -7.63828e-13 -1.95885e-12 0 0 5.54634e-27
1969 66 0.0015 0.00699599 -1.81136 0 -1.576e-13 1.39224e-12 0 1.56031e-20 2.33258e-27
6546 219 0.0015 0.210443 -1.81113 0 -1.96962e-13 2.62967e-12 0 0 9.17994e-27
10211 341 0.0015 0.282098 -1.81148 0 3.96334e-13 -2.97063e-12 0 3.6872e-21 8.63375e-27
6043 202 0.0015 -0.371054 -1.8083 0 1.58118e-12 -2.68371e-12 0 5.48788e-21 1.24057e-26
10284 343 0.0015 0.434265 -1.8099 0 1.31083e-12 8.38153e-12 0 0 5.96515e-26
10175 340 0.0015 -0.252228 -1.80757 0 -1.32077e-13 1.67591e-13 0 6.39056e-21 9.60527e-27
8017 268 0.0015 -0.149712 -1.80745 0 4.62335e-13 1.31109e-12 0 0 5.0279e-27
1970 66 0.0015 0.00651585 -1.80658 0 4.28692e-13 -3.78013e-12 0 1.56031e-20 1.8499e-26
8055 269 0.0015 0.145748 -1.8063 0 -2.46847e-13 2.77014e-12 0 0 8.58788e-27
5942 199 0.0015 0.743061 -1.80618 0 -7.16399e-13 -3.15033e-12 0 0 2.29723e-26
6547 219 0.0015 0.209882 -1.80404 0 4.10112e-14 -4.76365e-13 0 0 6.14966e-28