ITEM: TIMESTEP
46870
ITEM: NUMBER OF ATOMS
10500
ITEM: BOX BOUNDS pp pp pp
-1.0249999999999999e+00 1.0249999999999999e+00
-2.0000000000000000e+00 2.0000000000000000e+00
-5.0000000000000003e-02 5.0000000000000003e-02
ITEM: ATOMS id type radius x y z fx fy fz c_bendingE c_stretchingE
10321 345 0.0015 -0.0605191 -1.90326 0 5.95209e-13 -3.69107e-12 0 0 1.23072e-26
6031 202 0.0015 -0.31342 -1.90111 0 1.82174e-12 -2.91344e-12 0 0 2.9857e-26
10322 345 0.0015 -0.061196 -1.90016 0 3.9108e-13 1.4467e-12 0 0 1.74061e-26
8041 269 0.0015 0.155487 -1.90065 0 2.46936e-13 -2.26948e-12 0 0 9.80718e-27
10261 343 0.0015 0.417684 -1.90089 0 -5.05949e-13 -2.66552e-12 0 0 8.222e-27
1471 50 0.0015 0.556864 -1.90052 0 -1.27106e-12 -1.71482e-12 0 0 4.63821e-27
10323 345 0.0015 -0.0618728 -1.89705 0 -2.1822e-12 5.37489e-12 0 0 1.47941e-26
1951 66 0.0015 0.0156385 -1.89738 0 -4.338e-13 4.45215e-12 0 0 2.66956e-26
10262 343 0.0015 0.418405 -1.89694 0 8.49718e-13 4.49436e-12 0 0 1.209e-26
1472 50 0.0015 0.559091 -1.8976 0 1.43443e-12 2.15673e-12 0 6.81478e-21 4.84468e-27
2641 89 0.0015 -0.570912 -1.89491 0 -3.58844e-13 5.37349e-14 0 0 1.31249e-28
1473 50 0.0015 0.561317 -1.89469 0 -8.41385e-13 -1.66104e-12 0 6.81478e-21 2.14643e-27
2642 89 0.0015 -0.574633 -1.89206 0 1.94013e-12 -8.07958e-13 0 0 3.95714e-27
6032 202 0.0015 -0.318223 -1.89337 0 -2.85601e-12 4.52428e-12 0 0 3.91217e-26
10324 345 0.0015 -0.0625496 -1.89394 0 7.39777e-13 4.86417e-13 0 0 2.13388e-26
1952 66 0.0015 0.0151583 -1.8926 0 7.58205e-13 -7.74146e-12 0 0 4.12707e-26
8042 269 0.0015 0.154791 -1.89391 0 -5.73063e-13 5.2082e-12 0 3.6872e-21 2.62585e-26
10263 343 0.0015 0.419126 -1.89298 0 -8.12972e-13 -4.38325e-12 0 0 1.14026e-26
3540 118 0.0015 0.637977 -1.89243 0 -1.05304e-12 -5.22364e-13 0 0 1.17842e-27
6061 203 0.0015 -0.387409 -1.89062 0 6.49371e-13 -1.22343e-12 0 2.48474e-20 6.89574e-28
10325 345 0.0015 -0.0632265 -1.89084 0 1.5424e-12 -9.22803e-12 0 0 4.04738e-26
10231 342 0.0015 0.215 -1.89 0 -1.1653e-12 0 0 0 2.60138e-28
10232 342 0.0015 0.21569 -1.89 0 4.50022e-19 0 0 0 5.20276e-28
10233 342 0.0015 0.216379 -1.89 0 4.02031e-12 0 0 0 1.82189e-27
10234 342 0.0015 0.217069 -1.89 0 -4.49096e-12 0 0 0 2.0746e-27
10235 342 0.0015 0.217759 -1.89 0 1.26751e-12 0 0 0 5.38851e-28
10236 342 0.0015 0.218448 -1.89 0 3.61767e-13 0 0 0 2.60122e-29
10237 342 0.0015 0.219138 -1.89 0 -3.97988e-13 0 0 0 3.13766e-29
10238 342 0.0015 0.219828 -1.89 0 1.73905e-12 0 0 0 3.72256e-28
10239 342 0.0015 0.220517 -1.89 0 -4.16609e-12 0 0 0 1.87675e-27
10240 342 0.0015 0.221207 -1.89 0 5.54204e-12 0 0 0 2.94314e-27
10241 342 0.0015 0.221897 -1.89 0 -4.85362e-12 0 0 0 2.28728e-27
10242 342 0.0015 0.222586 -1.89 0 6.08536e-12 0 0 0 3.85669e-27
10243 342 0.0015 0.223276 -1.89 0 -7.75152e-12 0 0 0 5.75672e-27
10244 342 0.0015 0.223966 -1.89 0 6.59223e-12 0 0 0 4.26355e-27
10245 342 0.0015 0.224655 -1.89 0 -5.72292e-12 0 0 0 3.13952e-27
10246 342 0.0015 0.225345 -1.89 0 5.72292e-12 0 0 0 3.13952e-27
10247 342 0.0015 0.226034 -1.89 0 -6.59223e-12 0 0 0 4.26355e-27
10248 342 0.0015 0.226724 -1.89 0 7.75152e-12 0 0 0 5.75672e-27
10249 342 0.0015 0.227414 -1.89 0 -6.08536e-12 0 0 0 3.85669e-27
10250 342 0.0015 0.228103 -1.89 0 4.85362e-12 0 0 0 2.28728e-27
10251 342 0.0015 0.228793 -1.89 0 -5.54204e-12 0 0 0 2.94314e-27
10252 342 0.0015 0.229483 -1.89 0 4.16609e-12 0 0 0 1.87675e-27
10253 342 0.0015 0.230172 -1.89 0 -1.73905e-12 0 0 0 3.72256e-28
10254 342 0.0015 0.230862 -1.89 0 3.97988e-13 0 0 0 3.13766e-29
10255 342 0.0015 0.231552 -1.89 0 -3.61767e-13 0 0 0 2.60122e-29
10256 342 0.0015 0.232241 -1.89 0 -1.26751e-12 0 0 0 5.38851e-28
10257 342 0.0015 0.232931 -1.89 0 4.49096e-12 0 0 0 2.0746e-27
10258 342 0.0015 0.233621 -1.89 0 -4.02031e-12 0 0 0 1.82189e-27
10259 342 0.0015 0.23431 -1.89 0 -4.50022e-19 0 0 0 5.20276e-28
10260 342 0.0015 0.235 -1.89 0 1.1653e-12 0 0 0 2.60138e-28
6001 201 0.0015 0.490936 -1.89052 0 5.64405e-13 1.47673e-12 0 0 5.78514e-27
1474 50 0.0015 0.563543 -1.89178 0 -2.16145e-13 2.55193e-13 0 6.81478e-21 3.68428e-27
3539 118 0.0015 0.640514 -1.89051 0 2.33297e-12 1.79764e-12 0 0 4.00764e-27
2643 89 0.0015 -0.578354 -1.8892 0 -2.51228e-12 1.31562e-12 0 0 5.3465e-27
6063 203 0.0015 -0.391043 -1.8889 0 -1.71793e-12 -7.0981e-12 0 2.48474e-20 7.50309e-28
6064 203 0.0015 -0.392859 -1.88804 0 2.30134e-12 8.28566e-12 0 2.48474e-20 7.28585e-28
6062 203 0.0015 -0.389226 -1.88976 0 -5.10268e-13 4.0509e-12 0 2.48474e-20 1.34865e-27
10264 343 0.0015 0.419847 -1.88903 0 1.62367e-12 8.53703e-12 0 0 4.89998e-26
1475 50 0.0015 0.56577 -1.88887 0 2.93665e-12 3.53965e-12 0 0 1.27438e-26
3538 118 0.0015 0.643052 -1.8886 0 -4.25501e-13 -2.30701e-12 0 0 2.83243e-27
2644 89 0.0015 -0.582074 -1.88635 0 3.36124e-13 -4.09534e-13 0 0 1.93561e-27
6066 203 0.0015 -0.396492 -1.88631 0 4.32687e-12 1.57489e-12 0 2.48474e-20 3.92857e-27
6065 203 0.0015 -0.394676 -1.88717 0 -1.79094e-12 -4.71025e-12 0 2.48474e-20 8.85976e-28
7981 267 0.0015 -0.194876 -1.88635 0 9.7837e-13 2.02243e-12 0 1.00459e-20 2.75355e-29
10326 345 0.0015 -0.0639033 -1.88773 0 -1.13221e-12 5.59129e-12 0 0 2.88301e-26
1953 66 0.0015 0.0146782 -1.88782 0 -2.10154e-13 1.76708e-12 0 0 1.76819e-26
8043 269 0.0015 0.154095 -1.88717 0 4.93288e-13 -4.42515e-12 0 3.6872e-21 2.06615e-26
3537 118 0.0015 0.645589 -1.88668 0 -2.77315e-12 9.80954e-13 0 0 2.15759e-27
6068 203 0.0015 -0.400126 -1.88459 0 1.41739e-11 2.6797e-12 0 0 4.20136e-26
6067 203 0.0015 -0.398309 -1.88545 0 -1.2721e-11 -2.77623e-12 0 0 3.71074e-26
6033 202 0.0015 -0.323025 -1.88564 0 1.04433e-12 -1.55492e-12 0 0 9.26919e-27
7983 267 0.0015 -0.199527 -1.8846 0 -1.65388e-13 6.15924e-12 0 1.00459e-20 1.94695e-27
7982 267 0.0015 -0.197202 -1.88548 0 -1.47264e-12 -6.00776e-12 0 1.00459e-20 6.47573e-28
10327 345 0.0015 -0.0645802 -1.88463 0 -2.82049e-15 1.40995e-12 0 0 1.65435e-27
10265 343 0.0015 0.420568 -1.88507 0 -1.69417e-12 -8.46578e-12 0 0 4.867e-26
1476 50 0.0015 0.567996 -1.88596 0 -2.42413e-12 -3.29979e-12 0 0 1.16626e-26
3536 118 0.0015 0.648126 -1.88476 0 1.80945e-13 -1.0494e-12 0 0 5.86491e-27
2645 89 0.0015 -0.585795 -1.88349 0 1.77578e-12 -7.14831e-13 0 0 2.54816e-27
6071 203 0.0015 -0.405575 -1.882 0 2.07155e-12 9.77598e-12 0 2.48474e-20 6.49662e-27
6070 203 0.0015 -0.403759 -1.88287 0 2.44503e-13 -8.98282e-12 0 0 6.34195e-27
6069 203 0.0015 -0.401942 -1.88373 0 -3.92615e-12 2.73171e-12 0 0 8.94115e-27
7985 267 0.0015 -0.204179 -1.88284 0 -1.52151e-12 1.82892e-12 0 1.00459e-20 3.74298e-27
7984 267 0.0015 -0.201853 -1.88372 0 3.72157e-13 -2.24194e-12 0 1.00459e-20 1.36832e-27
1954 66 0.0015 0.0141981 -1.88304 0 -1.44453e-13 2.32664e-12 0 0 3.96796e-27
6002 201 0.0015 0.493952 -1.88275 0 -8.51028e-13 -2.22424e-12 0 5.99535e-21 7.26868e-27
1477 50 0.0015 0.570222 -1.88304 0 1.58559e-12 3.20058e-12 0 0 8.0785e-27
3535 118 0.0015 0.650663 -1.88285 0 5.6306e-12 2.79922e-12 0 0 1.87775e-26
2646 89 0.0015 -0.589516 -1.88064 0 -2.18592e-12 1.21516e-12 0 0 3.99164e-27
6073 203 0.0015 -0.409209 -1.88028 0 -1.72266e-12 1.15602e-11 0 2.48474e-20 1.75793e-26
6072 203 0.0015 -0.407392 -1.88114 0 -5.16227e-12 -1.09599e-11 0 2.48474e-20 1.05623e-27
7988 267 0.0015 -0.211156 -1.8802 0 1.48872e-12 -3.09592e-12 0 1.00459e-20 2.24622e-27
7987 267 0.0015 -0.208831 -1.88108 0 -3.20744e-12 5.20412e-12 0 0 1.1029e-26
7986 267 0.0015 -0.206505 -1.88196 0 4.70852e-12 -5.05744e-12 0 1.00459e-20 1.40902e-26
8011 268 0.0015 -0.176367 -1.88159 0 -1.34432e-13 -3.74063e-13 0 0 5.76275e-28
10328 345 0.0015 -0.065257 -1.88152 0 -1.81405e-12 5.44876e-12 0 0 4.59045e-26
8044 269 0.0015 0.1534 -1.88043 0 -2.25634e-13 2.05657e-12 0 3.6872e-21 4.82837e-27
10266 343 0.0015 0.421289 -1.88111 0 5.95005e-13 2.70433e-12 0 0 7.26269e-27
1478 50 0.0015 0.572449 -1.88013 0 -1.08976e-12 -3.45182e-12 0 0 7.92206e-27
3534 118 0.0015 0.653201 -1.88093 0 -3.21897e-12 -7.68178e-14 0 0 1.70946e-26
10292 344 0.0015 -0.465124 -1.8785 0 9.58384e-12 -8.701e-13 0 0 3.71463e-26
10291 344 0.0015 -0.4623 -1.87941 0 -5.44757e-12 6.94648e-13 0 0 2.40176e-26
6074 203 0.0015 -0.411025 -1.87942 0 9.21342e-12 -4.43458e-12 0 0 2.9384e-26
6075 203 0.0015 -0.412842 -1.87856 0 -1.42824e-11 -3.97325e-13 0 2.48474e-20 4.83737e-26
7990 267 0.0015 -0.215808 -1.87844 0 4.37121e-12 -5.31836e-13 0 2.00918e-20 7.85519e-27
7989 267 0.0015 -0.213482 -1.87932 0 -2.20598e-12 1.53927e-12 0 2.00918e-20 2.41614e-27
10329 345 0.0015 -0.0659339 -1.87841 0 3.37733e-12 -1.24896e-11 0 1.57149e-20 7.4406e-26
1955 66 0.0015 0.0137179 -1.87827 0 5.50375e-14 -1.27957e-12 0 0 1.16244e-27
10201 341 0.0015 0.290108 -1.87875 0 3.9964e-14 -3.83276e-13 0 0 2.79396e-28
3533 118 0.0015 0.655738 -1.87902 0 4.04916e-13 -1.05918e-12 0 0 3.29974e-27
2647 89 0.0015 -0.593237 -1.87778 0 1.67067e-12 -1.29636e-12 0 0 2.96178e-27
10294 344 0.0015 -0.470773 -1.87669 0 5.77172e-12 -3.64475e-12 0 0 1.97546e-26
10293 344 0.0015 -0.467948 -1.87759 0 -6.13726e-12 1.3793e-12 0 0 1.73871e-26
6077 203 0.0015 -0.416475 -1.87683 0 -1.07197e-11 -8.11881e-12 0 4.96948e-20 4.14898e-26
6076 203 0.0015 -0.414658 -1.87769 0 1.84455e-11 6.67158e-13 0 4.96948e-20 7.49467e-26
6034 202 0.0015 -0.327828 -1.87791 0 -2.59741e-13 2.82418e-13 0 0 4.4875e-28
7992 267 0.0015 -0.22046 -1.87668 0 1.03827e-11 -3.18908e-12 0 0 4.28097e-26
7991 267 0.0015 -0.218134 -1.87756 0 -1.01506e-11 1.10284e-12 0 1.00459e-20 3.79656e-26
10267 343 0.0015 0.42201 -1.87716 0 -7.97072e-13 -4.49467e-12 0 1.24237e-20 2.10711e-26
1479 50 0.0015 0.574675 -1.87722 0 -1.26806e-12 1.10719e-13 0 0 2.46737e-27
3532 118 0.0015 0.658275 -1.8771 0 -5.24596e-12 -3.84639e-12 0 0 2.61172e-26
2648 89 0.0015 -0.596958 -1.87493 0 -8.42293e-13 9.72805e-13 0 0 1.25407e-27
10296 344 0.0015 -0.476421 -1.87487 0 1.09695e-11 -5.65767e-12 0 1.68424e-20 6.10917e-26
10295 344 0.0015 -0.473597 -1.87578 0 -9.40717e-12 5.23254e-12 0 1.68424e-20 4.73772e-26
6080 203 0.0015 -0.421925 -1.87425 0 9.1272e-12 -4.5226e-12 0 4.96948e-20 3.96906e-26
6079 203 0.0015 -0.420108 -1.87511 0 -1.1152e-12 -7.07987e-12 0 2.48474e-20 1.1252e-26
6078 203 0.0015 -0.418291 -1.87597 0 -1.55962e-13 1.40528e-11 0 2.48474e-20 1.1597e-26
7995 267 0.0015 -0.227437 -1.87404 0 2.9884e-12 3.79221e-12 0 0 1.21498e-27
7994 267 0.0015 -0.225111 -1.87492 0 -6.52206e-13 -7.133e-12 0 0 2.90806e-27
7993 267 0.0015 -0.222785 -1.8758 0 -4.17959e-12 6.46484e-12 0 0 1.47846e-26
10330 345 0.0015 -0.0666107 -1.87531 0 -2.35838e-12 9.21596e-12 0 1.57149e-20 4.20059e-26
6003 201 0.0015 0.496967 -1.87498 0 1.24412e-13 2.78689e-13 0 1.19907e-20 2.05242e-27
1480 50 0.0015 0.576901 -1.87431 0 -1.5811e-13 -1.15715e-12 0 6.81478e-21 7.84002e-27
3531 118 0.0015 0.660812 -1.87519 0 7.67218e-12 5.92482e-12 0 0 4.18554e-26
2649 89 0.0015 -0.600679 -1.87207 0 -1.858e-12 1.21928e-12 0 0 8.66565e-27
10299 344 0.0015 -0.484893 -1.87215 0 3.09593e-12 -5.40919e-13 0 0 1.35048e-26
10298 344 0.0015 -0.482069 -1.87306 0 4.44945e-12 -3.14724e-12 0 0 1.6202e-26
10297 344 0.0015 -0.479245 -1.87396 0 -9.10895e-12 5.34373e-12 0 1.68424e-20 4.48229e-26
6082 203 0.0015 -0.425558 -1.87252 0 2.44463e-12 -1.10397e-11 0 2.48474e-20 2.71255e-26
6081 203 0.0015 -0.423741 -1.87338 0 -1.10775e-11 1.20181e-11 0 4.96948e-20 6.4595e-26
7997 267 0.0015 -0.232089 -1.87228 0 -3.28802e-12 2.30132e-12 0 0 5.31658e-27
7996 267 0.0015 -0.229763 -1.87316 0 -3.75578e-13 -2.03132e-12 0 0 3.16776e-27
10331 345 0.0015 -0.0672875 -1.8722 0 2.92427e-12 -1.32704e-11 0 1.57149e-20 9.88498e-26
1956 66 0.0015 0.0132378 -1.87349 0 -1.94807e-13 2.19694e-12 0 0 4.29499e-27
8045 269 0.0015 0.152704 -1.87369 0 1.32979e-13 -1.45162e-12 0 0 2.09033e-27
10202 341 0.0015 0.289307 -1.87202 0 -3.47607e-13 2.99861e-12 0 0 1.33294e-26
4531 152 0.0015 0.366216 -1.8733 0 -4.09055e-14 1.95222e-13 0 0 9.61482e-29
10268 343 0.0015 0.422731 -1.8732 0 1.2715e-12 7.4603e-12 0 2.48474e-20 3.26685e-26
3530 118 0.0015 0.66335 -1.87327 0 -1.57637e-12 -1.50047e-12 0 1.57149e-20 2.13891e-26
10301 344 0.0015 -0.490541 -1.87033 0 -2.6886e-12 1.99428e-12 0 0 2.02402e-26
10300 344 0.0015 -0.487717 -1.87124 0 -5.3574e-12 1.30523e-12 0 0 1.48711e-26
6084 203 0.0015 -0.429191 -1.8708 0 6.64771e-12 4.57116e-13 0 0 1.09553e-26
6083 203 0.0015 -0.427374 -1.87166 0 2.35954e-13 4.47991e-12 0 0 1.68218e-27
6035 202 0.0015 -0.332631 -1.87017 0 4.13525e-13 -5.85017e-13 0 0 6.65817e-28
7999 267 0.0015 -0.23674 -1.87052 0 -2.62215e-13 -1.93135e-12 0 0 8.51786e-29
7998 267 0.0015 -0.234415 -1.8714 0 1.77777e-12 -5.76277e-13 0 0 3.42937e-27
1481 50 0.0015 0.579128 -1.8714 0 2.00371e-12 3.23186e-12 0 6.81478e-21 7.82261e-27
3529 118 0.0015 0.665887 -1.87136 0 -6.87413e-12 -4.35557e-12 0 1.57149e-20 3.49515e-26
2650 89 0.0015 -0.6044 -1.86922 0 2.09049e-12 -1.88851e-12 0 0 8.59737e-27
10303 344 0.0015 -0.49619 -1.86852 0 9.50853e-13 2.52974e-12 0 0 7.46971e-27
10302 344 0.0015 -0.493366 -1.86943 0 5.91925e-12 -3.71817e-12 0 0 2.17884e-26
6087 203 0.0015 -0.434641 -1.86821 0 -1.30223e-11 -1.09416e-12 0 0 3.75581e-26
6085 203 0.0015 -0.431008 -1.86994 0 -1.11255e-11 -2.14542e-12 0 0 2.3558e-26
6086 203 0.0015 -0.432824 -1.86908 0 1.4127e-11 1.74023e-12 0 0 4.13415e-26
8001 267 0.0015 -0.241392 -1.86876 0 5.0783e-12 -3.72424e-13 0 2.00918e-20 1.08481e-26
8000 267 0.0015 -0.239066 -1.86964 0 -5.88098e-13 1.74139e-12 0 1.00459e-20 7.89478e-28
8012 268 0.0015 -0.171924 -1.86923 0 -1.27206e-13 -3.54303e-13 0 1.90242e-21 2.76094e-27
10332 345 0.0015 -0.0679644 -1.86909 0 -3.34702e-12 1.58141e-11 0 0 1.2137e-25
1957 66 0.0015 0.0127576 -1.86871 0 2.78128e-13 -2.66343e-12 0 0 5.19197e-27
10269 343 0.0015 0.423451 -1.86924 0 9.71606e-14 -7.51681e-13 0 2.48474e-20 1.86816e-26
1482 50 0.0015 0.581354 -1.86848 0 -1.54382e-12 -2.52053e-12 0 6.81478e-21 4.41661e-27
3528 118 0.0015 0.668424 -1.86944 0 6.90185e-12 4.38833e-12 0 3.14298e-20 3.51177e-26
2651 89 0.0015 -0.608121 -1.86636 0 1.43239e-12 -1.00993e-13 0 0 2.81987e-27
10305 344 0.0015 -0.501838 -1.8667 0 3.43694e-12 2.42503e-13 0 0 4.49595e-27
10304 344 0.0015 -0.499014 -1.86761 0 -4.87106e-12 -1.40814e-12 0 0 7.30446e-27
6089 203 0.0015 -0.438274 -1.86649 0 -8.04853e-13 -2.54462e-12 0 0 7.28941e-29
6088 203 0.0015 -0.436457 -1.86735 0 5.7746e-12 2.06109e-12 0 0 1.0501e-26
8004 267 0.0015 -0.248369 -1.86612 0 5.88795e-12 -2.62058e-12 0 0 1.43801e-26
8003 267 0.0015 -0.246044 -1.867 0 -1.92622e-12 8.18774e-13 0 1.00459e-20 9.57158e-27
8002 267 0.0015 -0.243718 -1.86788 0 -5.47864e-12 1.78318e-13 0 2.00918e-20 1.13622e-26
8046 269 0.0015 0.152008 -1.86695 0 -3.68437e-13 3.93751e-12 0 3.6872e-21 1.92094e-26
6004 201 0.0015 0.499982 -1.86721 0 2.96857e-13 8.54072e-13 0 1.19907e-20 9.53952e-28
3527 118 0.0015 0.670962 -1.86752 0 -1.44583e-12 -2.07282e-13 0 1.57149e-20 5.41003e-27
10307 344 0.0015 -0.507486 -1.86489 0 -8.52113e-12 3.63356e-12 0 1.68424e-20 4.15397e-26
10306 344 0.0015 -0.504662 -1.8658 0 1.30118e-12 -6.68517e-13 0 0 6.84845e-27
6090 203 0.0015 -0.440091 -1.86563 0 7.10723e-14 9.9253e-13 0 0 7.28911e-29
8006 267 0.0015 -0.253021 -1.86436 0 -6.92081e-12 9.85032e-14 0 0 1.81756e-26
8005 267 0.0015 -0.250695 -1.86524 0 -4.96002e-13 2.42385e-12 0 0 7.98906e-27
10333 345 0.0015 -0.0686412 -1.86599 0 1.61117e-12 -8.13433e-12 0 0 3.80893e-26
10203 341 0.0015 0.288506 -1.8653 0 6.62898e-13 -5.52936e-12 0 3.6872e-21 2.92675e-26
4532 152 0.0015 0.364868 -1.86469 0 -1.25233e-13 9.65844e-13 0 0 3.42912e-27
10270 343 0.0015 0.424172 -1.86529 0 -1.78845e-12 -7.54568e-12 0 1.24237e-20 3.7651e-26
1483 50 0.0015 0.58358 -1.86557 0 1.13765e-12 2.10299e-12 0 6.81478e-21 3.13003e-27
3526 118 0.0015 0.673499 -1.86561 0 -3.16816e-12 -3.9262e-12 0 1.57149e-20 1.43275e-26
2652 89 0.0015 -0.611842 -1.86351 0 -2.09437e-12 2.9938e-13 0 0 2.93991e-27
10310 344 0.0015 -0.515959 -1.86217 0 -4.21207e-12 1.34282e-12 0 1.68424e-20 1.16106e-26
10309 344 0.0015 -0.513134 -1.86307 0 -2.73656e-12 2.27177e-12 0 3.36849e-20 1.39094e-26
10308 344 0.0015 -0.51031 -1.86398 0 9.63552e-12 -4.78448e-12 0 3.36849e-20 4.93051e-26
6036 202 0.0015 -0.337434 -1.86244 0 -2.77603e-13 4.46351e-13 0 0 3.54915e-28
8008 267 0.0015 -0.257673 -1.8626 0 -1.49514e-12 -3.33648e-12 0 0 6.76796e-27
8007 267 0.0015 -0.255347 -1.86348 0 7.29406e-12 -1.00049e-12 0 0 2.00086e-26
10334 345 0.0015 -0.0693181 -1.86288 0 -6.62732e-13 3.53045e-12 0 0 5.80927e-27
1958 66 0.0015 0.0122775 -1.86393 0 -4.06382e-14 -5.86592e-15 0 0 2.40113e-27
1484 50 0.0015 0.585807 -1.86266 0 1.35665e-12 1.90388e-13 0 1.36296e-20 3.87676e-27
3525 118 0.0015 0.676036 -1.86369 0 3.16816e-12 3.9262e-12 0 1.57149e-20 1.43275e-26
2653 89 0.0015 -0.615563 -1.86065 0 1.13192e-12 -2.23837e-13 0 0 7.36112e-28
10312 344 0.0015 -0.521607 -1.86035 0 -3.82073e-12 2.67146e-12 0 0 1.07528e-26
10311 344 0.0015 -0.518783 -1.86126 0 6.43144e-12 -3.38227e-12 0 0 2.11245e-26
8010 267 0.0015 -0.262324 -1.86085 0 5.26799e-13 -2.51324e-12 0 0 1.31881e-27
8009 267 0.0015 -0.259998 -1.86172 0 -1.46894e-12 5.96311e-12 0 0 4.36962e-27
8047 269 0.0015 0.151313 -1.86021 0 3.99915e-13 -4.19455e-12 0 7.37441e-21 2.01975e-26
10271 343 0.0015 0.424893 -1.86133 0 2.06604e-12 1.02167e-11 0 0 6.06616e-26
3524 118 0.0015 0.678573 -1.86178 0 1.44583e-12 2.07282e-13 0 1.57149e-20 5.41003e-27
10314 344 0.0015 -0.527255 -1.85854 0 -2.25892e-12 -6.48375e-13 0 1.68424e-20 1.98214e-27
10313 344 0.0015 -0.524431 -1.85944 0 2.25867e-12 -9.89461e-13 0 1.68424e-20 2.58179e-27
10335 345 0.0015 -0.0699949 -1.85978 0 4.0381e-13 -8.83204e-13 0 1.57149e-20 2.39666e-27
1959 66 0.0015 0.0117974 -1.85915 0 -3.58057e-14 7.91748e-13 0 0 1.23619e-27
4771 160 0.0015 0.0785585 -1.85825 0 4.7379e-15 -1.7148e-13 0 2.71488e-21 7.52148e-29
10204 341 0.0015 0.287705 -1.85857 0 -5.29331e-13 4.32127e-12 0 3.6872e-21 2.00012e-26
6005 201 0.0015 0.502997 -1.85945 0 -4.38383e-13 -1.16792e-12 0 5.99535e-21 2.01657e-27
1485 50 0.0015 0.588033 -1.85975 0 -2.49405e-12 -5.13061e-13 0 2.04443e-20 3.24121e-27
3523 118 0.0015 0.681111 -1.85986 0 -6.90185e-12 -4.38833e-12 0 3.14298e-20 3.51177e-26
2654 89 0.0015 -0.619284 -1.8578 0 1.37626e-12 -9.15046e-13 0 0 7.35895e-27
10316 344 0.0015 -0.532903 -1.85672 0 1.53539e-12 -8.52878e-13 0 0 2.63751e-27
10315 344 0.0015 -0.530079 -1.85763 0 -7.81803e-13 1.85483e-12 0 1.68424e-20 2.82085e-27
8013 268 0.0015 -0.167482 -1.85688 0 3.44867e-13 9.52031e-13 0 1.90242e-21 2.39238e-27
10336 345 0.0015 -0.0706718 -1.85667 0 -5.32696e-13 -2.40345e-13 0 3.14298e-20 5.00241e-28
4533 152 0.0015 0.36352 -1.85607 0 2.4608e-13 -1.71084e-12 0 0 4.08079e-27
10272 343 0.0015 0.425614 -1.85738 0 -6.68844e-13 -4.8945e-12 0 0 3.01071e-26
1486 50 0.0015 0.59026 -1.85684 0 2.49405e-12 5.13061e-13 0 2.04443e-20 3.24121e-27
3522 118 0.0015 0.683648 -1.85795 0 6.87413e-12 4.35557e-12 0 1.57149e-20 3.49515e-26
3521 118 0.0015 0.686185 -1.85603 0 1.57637e-12 1.50047e-12 0 1.57149e-20 2.13891e-26
2655 89 0.0015 -0.623004 -1.85494 0 -4.83089e-12 3.44983e-12 0 0 2.41238e-26
10318 344 0.0015 -0.538552 -1.85491 0 3.5885e-12 -1.2163e-12 0 0 1.06025e-26
10317 344 0.0015 -0.535727 -1.85581 0 -1.87596e-13 -1.19121e-13 0 0 3.89435e-29
6037 202 0.0015 -0.342237 -1.85471 0 -2.79435e-13 4.4804e-13 0 0 1.58505e-27
1960 66 0.0015 0.0113172 -1.85437 0 -5.57602e-13 5.53809e-12 0 0 3.90513e-26
3520 118 0.0015 0.688722 -1.85412 0 -7.67218e-12 -5.92482e-12 0 0 4.18554e-26
2656 89 0.0015 -0.626725 -1.85209 0 5.69449e-12 -4.34507e-12 0 0 3.34319e-26
10320 344 0.0015 -0.5442 -1.85309 0 2.67846e-12 -8.03867e-13 0 0 6.44143e-27
10319 344 0.0015 -0.541376 -1.854 0 -6.06977e-12 1.95586e-12 0 0 1.70085e-26
10337 345 0.0015 -0.0713486 -1.85356 0 -1.84145e-16 2.09901e-12 0 3.14298e-20 5.79667e-27
8048 269 0.0015 0.150617 -1.85348 0 -1.06772e-14 2.21549e-13 0 7.37441e-21 4.05969e-27
10273 343 0.0015 0.426335 -1.85342 0 -1.60435e-12 -7.39788e-12 0 0 5.98459e-26
1487 50 0.0015 0.592486 -1.85392 0 -1.35665e-12 -1.90388e-13 0 1.36296e-20 3.87676e-27
3519 118 0.0015 0.69126 -1.8522 0 5.24596e-12 3.84639e-12 0 0 2.61172e-26
10338 345 0.0015 -0.0720254 -1.85046 0 2.36381e-12 -9.688e-12 0 3.14298e-20 5.46201e-26
10205 341 0.0015 0.286904 -1.85184 0 3.08243e-14 -2.36767e-13 0 3.6872e-21 6.40059e-27
6006 201 0.0015 0.506013 -1.85168 0 8.97004e-13 2.34104e-12 0 5.99535e-21 8.06747e-27
1488 50 0.0015 0.594712 -1.85101 0 -1.13765e-12 -2.10299e-12 0 6.81478e-21 3.13003e-27
3518 118 0.0015 0.693797 -1.85028 0 -4.04916e-13 1.05918e-12 0 0 3.29974e-27
2657 89 0.0015 -0.630446 -1.84923 0 -3.60456e-12 3.03187e-12 0 0 1.79672e-26
1961 66 0.0015 0.0108371 -1.84959 0 5.81924e-13 -6.32151e-12 0 0 4.0197e-26
4772 160 0.0015 0.0782973 -1.84905 0 -5.71004e-14 1.91076e-12 0 5.42976e-21 7.81399e-27
10274 343 0.0015 0.427056 -1.84946 0 2.24583e-12 1.23629e-11 0 0 9.05641e-26
1489 50 0.0015 0.596939 -1.8481 0 1.54382e-12 2.52053e-12 0 6.81478e-21 4.41661e-27
3517 118 0.0015 0.696334 -1.84837 0 3.21897e-12 7.68178e-14 0 0 1.70946e-26
2658 89 0.0015 -0.634167 -1.84638 0 -4.31915e-13 -1.04093e-13 0 5.32605e-21 4.63239e-27
6038 202 0.0015 -0.34704 -1.84697 0 1.45208e-12 -2.38799e-12 0 0 1.1945e-26
10339 345 0.0015 -0.0727023 -1.84735 0 -2.90242e-12 1.00655e-11 0 1.57149e-20 5.69775e-26
8049 269 0.0015 0.149922 -1.84674 0 -8.48358e-14 8.73795e-13 0 3.6872e-21 1.60312e-27
6541 219 0.0015 0.213251 -1.84656 0 -1.76574e-14 1.87084e-13 0 0 6.97086e-29
4534 152 0.0015 0.362172 -1.84745 0 -3.3042e-13 2.09273e-12 0 0 6.66857e-27
3516 118 0.0015 0.698871 -1.84645 0 -5.6306e-12 -2.79922e-12 0 0 1.87775e-26
8014 268 0.0015 -0.163039 -1.84452 0 5.68529e-13 1.6013e-12 0 1.90242e-21 1.39047e-26
10340 345 0.0015 -0.0733791 -1.84424 0 9.50992e-13 -2.27631e-12 0 1.57149e-20 8.25341e-27
1962 66 0.0015 0.010357 -1.84481 0 3.66053e-13 -2.97329e-12 0 5.20104e-21 2.18379e-26
10206 341 0.0015 0.286103 -1.84511 0 6.79759e-13 -5.5726e-12 0 0 3.96265e-26
10275 343 0.0015 0.427777 -1.84551 0 -1.27901e-12 -7.78632e-12 0 0 3.85704e-26
1490 50 0.0015 0.599165 -1.84519 0 -2.00371e-12 -3.23186e-12 0 6.81478e-21 7.82261e-27
3515 118 0.0015 0.701409 -1.84454 0 -1.80945e-13 1.0494e-12 0 0 5.86491e-27
2659 89 0.0015 -0.637888 -1.84352 0 3.51794e-12 -2.42191e-12 0 1.06521e-20 1.30104e-26
6007 201 0.0015 0.509028 -1.84391 0 -1.59811e-12 -4.22073e-12 0 1.19907e-20 2.51788e-26
1491 50 0.0015 0.601391 -1.84228 0 1.5811e-13 1.15715e-12 0 6.81478e-21 7.84002e-27
3514 118 0.0015 0.703946 -1.84262 0 2.77315e-12 -9.80954e-13 0 0 2.15759e-27
2660 89 0.0015 -0.641609 -1.84066 0 -2.45432e-12 2.02131e-12 0 1.06521e-20 1.03979e-26
10341 345 0.0015 -0.074056 -1.84114 0 -3.74828e-13 9.30985e-13 0 0 2.45633e-27
1963 66 0.0015 0.00987681 -1.84004 0 -3.99912e-13 3.76393e-12 0 5.20104e-21 2.06889e-26
10276 343 0.0015 0.428498 -1.84155 0 1.27901e-12 7.78632e-12 0 0 3.85704e-26
3513 118 0.0015 0.706483 -1.84071 0 4.25501e-13 2.30701e-12 0 0 2.83243e-27
6039 202 0.0015 -0.351842 -1.83924 0 -2.25756e-12 3.69314e-12 0 0 2.37704e-26
10342 345 0.0015 -0.0747328 -1.83803 0 8.81717e-13 -2.45441e-12 0 1.57149e-20 3.08341e-27
4773 160 0.0015 0.0780361 -1.83985 0 5.22326e-14 -1.55172e-12 0 8.14464e-21 7.82863e-27
8050 269 0.0015 0.149226 -1.84 0 3.9337e-14 -4.76427e-13 0 3.6872e-21 5.1637e-28
6542 219 0.0015 0.21269 -1.83947 0 -3.42673e-14 5.76143e-13 0 0 1.22516e-27
10207 341 0.0015 0.285302 -1.83839 0 -1.02373e-12 8.40501e-12 0 0 6.76099e-26
4535 152 0.0015 0.360823 -1.83883 0 4.0076e-13 -2.34965e-12 0 0 7.551e-27
1492 50 0.0015 0.603618 -1.83936 0 1.26806e-12 -1.10719e-13 0 0 2.46737e-27
3512 118 0.0015 0.70902 -1.83879 0 -2.33297e-12 -1.79764e-12 0 0 4.00764e-27
2661 89 0.0015 -0.64533 -1.83781 0 -2.09573e-12 1.0079e-12 0 5.32605e-21 9.36424e-27
10277 343 0.0015 0.429219 -1.8376 0 -2.24583e-12 -1.23629e-11 0 0 9.05641e-26
6008 201 0.0015 0.512043 -1.83614 0 2.5752e-12 6.79338e-12 0 1.19907e-20 6.3951e-26
1493 50 0.0015 0.605844 -1.83645 0 1.08976e-12 3.45182e-12 0 0 7.92206e-27
3511 118 0.0015 0.711558 -1.83688 0 1.05304e-12 5.22364e-13 0 0 1.17842e-27
2662 89 0.0015 -0.649051 -1.83495 0 3.50354e-12 -2.0363e-12 0 0 1.16054e-26
10343 345 0.0015 -0.0754097 -1.83493 0 -8.14232e-13 1.44942e-12 0 1.57149e-20 1.20571e-27
1964 66 0.0015 0.00939668 -1.83526 0 -8.2064e-14 4.97989e-13 0 1.04021e-20 1.96903e-28
2663 89 0.0015 -0.652772 -1.8321 0 1.08737e-13 -6.74473e-14 0 0 5.32863e-27
10171 340 0.0015 -0.234195 -1.83312 0 -2.93802e-13 3.89797e-13 0 0 5.169e-28
8015 268 0.0015 -0.158597 -1.83216 0 -9.38023e-13 -2.61663e-12 0 0 1.62818e-26
8051 269 0.0015 0.14853 -1.83326 0 -2.04215e-13 1.94862e-12 0 3.6872e-21 4.40048e-27
6543 219 0.0015 0.212128 -1.83239 0 6.34118e-14 -1.06767e-12 0 0 1.33842e-27
10278 343 0.0015 0.429939 -1.83364 0 1.60435e-12 7.39788e-12 0 0 5.98459e-26
1494 50 0.0015 0.60807 -1.83354 0 -1.58559e-12 -3.20058e-12 0 0 8.0785e-27
6040 202 0.0015 -0.356645 -1.83151 0 2.12339e-12 -3.47789e-12 0 0 2.13199e-26
10344 345 0.0015 -0.0760865 -1.83182 0 -1.26794e-13 1.51163e-12 0 3.14298e-20 4.08041e-27
1965 66 0.0015 0.00891654 -1.83048 0 2.42057e-13 -2.15186e-12 0 1.04021e-20 4.54531e-27
4774 160 0.0015 0.0777749 -1.83066 0 6.77134e-14 -2.6431e-12 0 8.14464e-21 1.55125e-26
10208 341 0.0015 0.284501 -1.83166 0 4.46919e-13 -3.67292e-12 0 0 3.08082e-26
4536 152 0.0015 0.359475 -1.83021 0 -1.75444e-13 8.75939e-13 0 0 1.64291e-27
1495 50 0.0015 0.610297 -1.83063 0 2.42413e-12 3.29979e-12 0 0 1.16626e-26
2664 89 0.0015 -0.656493 -1.82924 0 -2.9008e-12 1.36074e-12 0 0 6.39438e-27
10345 345 0.0015 -0.0767633 -1.82871 0 1.37133e-12 -5.35814e-12 0 1.57149e-20 1.4332e-26
10279 343 0.0015 0.43066 -1.82968 0 6.68844e-13 4.8945e-12 0 0 3.01071e-26
6009 201 0.0015 0.515058 -1.82837 0 -2.48924e-12 -6.55442e-12 0 1.19907e-20 6.07559e-26
2665 89 0.0015 -0.660213 -1.82639 0 1.61446e-12 8.05152e-14 0 5.32605e-21 3.70742e-27
10172 340 0.0015 -0.238704 -1.82673 0 -4.27422e-13 6.9318e-13 0 6.39056e-21 4.19075e-27
8052 269 0.0015 0.147835 -1.82652 0 1.6404e-13 -1.39594e-12 0 3.6872e-21 3.88967e-27
1496 50 0.0015 0.612523 -1.82772 0 -2.93665e-12 -3.53965e-12 0 0 1.27438e-26
10346 345 0.0015 -0.0774402 -1.82561 0 -8.59432e-13 2.43865e-12 0 1.57149e-20 1.12348e-26
1966 66 0.0015 0.0084364 -1.8257 0 -3.26713e-13 3.46829e-12 0 1.04021e-20 8.10799e-27
6544 219 0.0015 0.211567 -1.8253 0 -2.45156e-13 3.45135e-12 0 0 1.98455e-26
10209 341 0.0015 0.2837 -1.82493 0 1.34389e-13 -1.11492e-12 0 0 1.38411e-27
10280 343 0.0015 0.431381 -1.82573 0 -2.06604e-12 -1.02167e-11 0 0 6.06616e-26
1497 50 0.0015 0.614749 -1.8248 0 2.16145e-13 -2.55193e-13 0 6.81478e-21 3.68428e-27
2666 89 0.0015 -0.663934 -1.82353 0 -2.24375e-12 4.91594e-13 0 1.06521e-20 8.25913e-27
6041 202 0.0015 -0.361448 -1.82377 0 -8.18112e-13 1.40431e-12 0 0 8.10658e-27
10347 345 0.0015 -0.078117 -1.8225 0 -9.27804e-13 5.99015e-12 0 0 2.42261e-26
2667 89 0.0015 -0.667655 -1.82068 0 4.24768e-12 -2.50684e-12 0 1.06521e-20 1.56182e-26
10173 340 0.0015 -0.243212 -1.82034 0 7.82956e-14 -1.80134e-13 0 6.39056e-21 6.3416e-27
1967 66 0.0015 0.00795626 -1.82092 0 1.51968e-13 -2.00294e-12 0 1.04021e-20 3.88028e-27
4775 160 0.0015 0.0775136 -1.82146 0 -1.24744e-13 4.47392e-12 0 5.42976e-21 2.58433e-26
4537 152 0.0015 0.358127 -1.82159 0 -5.01986e-14 3.63317e-13 0 0 4.797e-28
10281 343 0.0015 0.432102 -1.82177 0 1.78845e-12 7.54568e-12 0 1.24237e-20 3.7651e-26
6010 201 0.0015 0.518074 -1.8206 0 1.18016e-12 3.10598e-12 0 5.99535e-21 1.67842e-26
1498 50 0.0015 0.616976 -1.82189 0 8.41385e-13 1.66104e-12 0 6.81478e-21 2.14643e-27
8016 268 0.0015 -0.154154 -1.81981 0 -1.87809e-13 -5.33912e-13 0 0 9.81348e-27
10348 345 0.0015 -0.0787939 -1.81939 0 6.10715e-13 -5.32906e-12 0 0 2.35559e-26
8053 269 0.0015 0.147139 -1.81978 0 9.94456e-14 -1.2307e-12 0 0 2.72309e-27
6545 219 0.0015 0.211005 -1.81821 0 3.45973e-13 -4.76291e-12 0 0 2.48437e-26
10210 341 0.0015 0.282899 -1.8182 0 1.92147e-13 -1.49247e-12 0 0 1.10905e-26
1499 50 0.0015 0.619202 -1.81898 0 -1.43443e-12 -2.15673e-12 0 6.81478e-21 4.84468e-27
2668 89 0.0015 -0.671376 -1.81782 0 -2.43831e-12 1.47569e-12 0 5.32605e-21 7.80517e-27
6042 202 0.0015 -0.366251 -1.81604 0 -6.28588e-13 9.25053e-13 0 2.74394e-21 2.38784e-27
10349 345 0.0015 -0.0794707 -1.81629 0 2.02692e-12 -7.03219e-12 0 0 4.94065e-26
1968 66 0.0015 0.00747613 -1.81614 0 -1.22643e-13 1.67035e-12 0 5.20104e-21 2.53961e-27
10282 343 0.0015 0.432823 -1.81781 0 -9.71606e-14 7.51681e-13 0 2.48474e-20 1.86816e-26
1500 50 0.0015 0.621428 -1.81607 0 1.27106e-12 1.71482e-12 0 0 4.63821e-27
2669 89 0.0015 -0.675097 -1.81497 0 1.85486e-12 -1.19193e-12 0 0 4.33832e-27
5941 199 0.0015 0.740778 -1.81551 0 -4.52323e-13 -1.85006e-12 0 0 9.6787e-27
2670 89 0.0015 -0.678818 -1.81211 0 -1.4435e-12 1.03522e-12 0 0 4.10658e-27
10174 340 0.0015 -0.24772 -1.81396 0 2.17747e-12 -3.15976e-12 0 6.39056e-21 1.88379e-26
10350 345 0.0015 -0.0801475 -1.81318 0 -1.75272e-12 7.27125e-12 0 0 4.93794e-26
4776 160 0.0015 0.0772524 -1.81226 0 5.71686e-14 -1.99784e-12 0 2.71488e-21 1.04217e-26
8054 269 0.0015 0.146443 -1.81304 0 4.56093e-15 3.07208e-13 0 0 4.23661e-27
4538 152 0.0015 0.356779 -1.81297 0 4.13721e-13 -2.52623e-12 0 0 1.13661e-26
10283 343 0.0015 0.433544 -1.81386 0 -1.2715e-12 -7.4603e-12 0 2.48474e-20 3.26685e-26
6011 201 0.0015 0.521089 -1.81283 0 -6.15925e-13 -1.58436e-12 0 5.99535e-21 3.40994e-27
1969 66 0.0015 0.00699599 -1.81136 0 4.7285e-14 -5.24328e-13 0 5.20104e-21 3.26787e-27
6546 219 0.0015 0.210443 -1.81113 0 -6.5894e-14 1.14569e-12 0 0 5.62208e-27
10211 341 0.0015 0.282098 -1.81148 0 -4.9943e-13 3.68071e-12 0 0 1.37018e-26
6043 202 0.0015 -0.371054 -1.8083 0 5.34007e-13 -8.07551e-13 0 2.74394e-21 2.32427e-27
10284 343 0.0015 0.434265 -1.8099 0 7.97072e-13 4.49467e-12 0 1.24237e-20 2.10711e-26
10175 340 0.0015 -0.252228 -1.80757 0 -2.54567e-12 3.77498e-12 0 0 2.33896e-26
8017 268 0.0015 -0.149712 -1.80745 0 6.45851e-13 1.79449e-12 0 0 8.13831e-27
1970 66 0.0015 0.00651585 -1.80658 0 2.57613e-13 -3.1936e-12 0 0 8.51031e-27
8055 269 0.0015 0.145748 -1.8063 0 -4.01413e-13 3.41365e-12 0 0 1.36513e-26
5942 199 0.0015 0.743061 -1.80618 0 8.01975e-13 3.28166e-12 0 0 1.54735e-26
6547 219 0.0015 0.209882 -1.80404 0 -3.69567e-14 2.91623e-13 0 0 5.04076e-28
10212 341 0.0015 0.281297 -1.80475 0 1.81972e-13 -6.1295e-13 0 0 4.95742e-27
4539 152 0.0015 0.35543 -1.80435 0 -4.3395e-13 2.72359e-12 0 5.72705e-21 1.18827e-26