ITEM: TIMESTEP
81270
ITEM: NUMBER OF ATOMS
10500
ITEM: BOX BOUNDS pp pp pp
-1.0249999999999999e+00 1.0249999999999999e+00
-2.0000000000000000e+00 2.0000000000000000e+00
-5.0000000000000003e-02 5.0000000000000003e-02
ITEM: ATOMS id type radius x y z fx fy fz c_bendingE c_stretchingE
10321 345 0.0015 -0.0605191 -1.90326 0 -1.57802e-13 5.445e-14 0 0 6.6535e-30
6031 202 0.0015 -0.31342 -1.90111 0 -7.0432e-13 1.15399e-12 0 0 4.62176e-27
10322 345 0.0015 -0.061196 -1.90016 0 -1.70147e-13 3.94591e-12 0 0 1.39844e-26
8041 269 0.0015 0.155487 -1.90065 0 2.66578e-13 -2.52288e-12 0 0 1.21117e-26
10261 343 0.0015 0.417684 -1.90089 0 -4.3039e-13 -2.45532e-12 0 0 6.9408e-27
1471 50 0.0015 0.556864 -1.90052 0 2.99135e-13 8.31847e-14 0 6.81478e-21 6.25136e-29
10323 345 0.0015 -0.0618728 -1.89705 0 -3.30712e-13 -4.10569e-12 0 0 1.39789e-26
1951 66 0.0015 0.0156385 -1.89738 0 2.38509e-13 -2.50439e-12 0 5.20104e-21 8.44325e-27
10262 343 0.0015 0.418405 -1.89694 0 9.76812e-13 5.1464e-12 0 0 1.53605e-26
1472 50 0.0015 0.559091 -1.8976 0 1.21518e-12 2.66928e-12 0 6.81478e-21 9.88777e-27
2641 89 0.0015 -0.570912 -1.89491 0 1.88311e-12 -1.4843e-12 0 0 7.48896e-27
1473 50 0.0015 0.561317 -1.89469 0 -4.76426e-12 -7.82856e-12 0 1.36296e-20 4.65601e-26
2642 89 0.0015 -0.574633 -1.89206 0 -3.29614e-12 2.37058e-12 0 0 1.10814e-26
6032 202 0.0015 -0.318223 -1.89337 0 1.0301e-12 -1.67742e-12 0 0 5.58298e-27
10324 345 0.0015 -0.0625496 -1.89394 0 1.19378e-12 -1.03423e-12 0 0 1.33153e-27
1952 66 0.0015 0.0151583 -1.8926 0 2.12517e-13 -1.7002e-12 0 1.04021e-20 3.22991e-26
8042 269 0.0015 0.154791 -1.89391 0 -1.7687e-13 1.42194e-12 0 0 1.44067e-26
10263 343 0.0015 0.419126 -1.89298 0 -1.25084e-12 -5.70697e-12 0 0 1.91081e-26
3540 118 0.0015 0.637977 -1.89243 0 2.22789e-12 2.21148e-12 0 0 8.54452e-27
6061 203 0.0015 -0.387409 -1.89062 0 5.40777e-12 -3.7662e-12 0 0 2.35984e-26
10325 345 0.0015 -0.0632265 -1.89084 0 -1.78617e-12 7.85015e-12 0 0 4.24425e-26
10231 342 0.0015 0.215 -1.89 0 -5.49541e-13 0 0 0 5.78535e-29
10232 342 0.0015 0.21569 -1.89 0 -1.19529e-12 0 0 0 6.41081e-28
10233 342 0.0015 0.216379 -1.89 0 5.72248e-12 0 0 0 3.61487e-27
10234 342 0.0015 0.217069 -1.89 0 -9.48925e-12 0 0 0 8.8516e-27
10235 342 0.0015 0.217759 -1.89 0 1.11201e-11 0 0 0 1.18449e-26
10236 342 0.0015 0.218448 -1.89 0 -1.2388e-11 0 0 0 1.483e-26
10237 342 0.0015 0.219138 -1.89 0 1.51404e-11 0 0 0 2.21965e-26
10238 342 0.0015 0.219828 -1.89 0 -1.62635e-11 0 0 0 2.53547e-26
10239 342 0.0015 0.220517 -1.89 0 1.57204e-11 0 0 0 2.36708e-26
10240 342 0.0015 0.221207 -1.89 0 -1.80019e-11 0 0 0 3.15774e-26
10241 342 0.0015 0.221897 -1.89 0 2.01747e-11 0 0 0 3.89916e-26
10242 342 0.0015 0.222586 -1.89 0 -1.69514e-11 0 0 0 2.84035e-26
10243 342 0.0015 0.223276 -1.89 0 1.33658e-11 0 0 0 1.71405e-26
10244 342 0.0015 0.223966 -1.89 0 -1.44882e-11 0 0 0 2.03766e-26
10245 342 0.0015 0.224655 -1.89 0 1.95596e-11 0 0 0 3.77468e-26
10246 342 0.0015 0.225345 -1.89 0 -1.95596e-11 0 0 0 3.77468e-26
10247 342 0.0015 0.226034 -1.89 0 1.44882e-11 0 0 0 2.03766e-26
10248 342 0.0015 0.226724 -1.89 0 -1.33658e-11 0 0 0 1.71405e-26
10249 342 0.0015 0.227414 -1.89 0 1.69514e-11 0 0 0 2.84035e-26
10250 342 0.0015 0.228103 -1.89 0 -2.01747e-11 0 0 0 3.89916e-26
10251 342 0.0015 0.228793 -1.89 0 1.80019e-11 0 0 0 3.15774e-26
10252 342 0.0015 0.229483 -1.89 0 -1.57204e-11 0 0 0 2.36708e-26
10253 342 0.0015 0.230172 -1.89 0 1.62635e-11 0 0 0 2.53547e-26
10254 342 0.0015 0.230862 -1.89 0 -1.51404e-11 0 0 0 2.21965e-26
10255 342 0.0015 0.231552 -1.89 0 1.2388e-11 0 0 0 1.483e-26
10256 342 0.0015 0.232241 -1.89 0 -1.11201e-11 0 0 0 1.18449e-26
10257 342 0.0015 0.232931 -1.89 0 9.48925e-12 0 0 0 8.8516e-27
10258 342 0.0015 0.233621 -1.89 0 -5.72248e-12 0 0 0 3.61487e-27
10259 342 0.0015 0.23431 -1.89 0 1.19529e-12 0 0 0 6.41081e-28
10260 342 0.0015 0.235 -1.89 0 5.49541e-13 0 0 0 5.78535e-29
6001 201 0.0015 0.490936 -1.89052 0 2.95411e-13 7.16358e-13 0 0 1.38927e-27
1474 50 0.0015 0.563543 -1.89178 0 3.51863e-12 5.87701e-12 0 6.81478e-21 3.73857e-26
3539 118 0.0015 0.640514 -1.89051 0 -4.59881e-13 -2.80099e-12 0 0 9.529e-27
2643 89 0.0015 -0.578354 -1.8892 0 1.17563e-12 -2.85797e-13 0 5.32605e-21 3.99221e-27
6063 203 0.0015 -0.391043 -1.8889 0 1.18483e-11 -8.53557e-12 0 0 6.38065e-26
6064 203 0.0015 -0.392859 -1.88804 0 -1.06218e-11 5.87216e-12 0 0 5.45026e-26
6062 203 0.0015 -0.389226 -1.88976 0 -9.14587e-12 7.14809e-12 0 0 3.66119e-26
10264 343 0.0015 0.419847 -1.88903 0 1.16506e-12 4.8327e-12 0 0 1.45945e-26
1475 50 0.0015 0.56577 -1.88887 0 2.21718e-12 3.11315e-12 0 6.81478e-21 2.23768e-26
3538 118 0.0015 0.643052 -1.8886 0 -2.87288e-12 2.34027e-12 0 1.57149e-20 1.01095e-27
2644 89 0.0015 -0.582074 -1.88635 0 2.54386e-13 -6.54649e-13 0 5.32605e-21 4.02535e-28
6066 203 0.0015 -0.396492 -1.88631 0 -1.21629e-12 1.0281e-12 0 0 2.00636e-27
6065 203 0.0015 -0.394676 -1.88717 0 3.11116e-12 1.3088e-12 0 0 3.76933e-27
7981 267 0.0015 -0.194876 -1.88635 0 -8.95067e-13 1.24745e-12 0 0 1.12902e-27
10326 345 0.0015 -0.0639033 -1.88773 0 2.6773e-12 -1.55123e-11 0 0 1.11119e-25
1953 66 0.0015 0.0146782 -1.88782 0 -1.00244e-12 9.5716e-12 0 1.56031e-20 6.2691e-26
8043 269 0.0015 0.154095 -1.88717 0 -6.55702e-13 6.82569e-12 0 0 6.45714e-26
3537 118 0.0015 0.645589 -1.88668 0 4.84297e-13 -3.15e-12 0 3.14298e-20 1.60824e-27
6068 203 0.0015 -0.400126 -1.88459 0 -6.56418e-12 2.63306e-11 0 0 8.32754e-26
6067 203 0.0015 -0.398309 -1.88545 0 4.87025e-12 -1.57283e-11 0 0 4.99944e-26
6033 202 0.0015 -0.323025 -1.88564 0 -1.45614e-13 1.96437e-13 0 0 1.31273e-27
7983 267 0.0015 -0.199527 -1.8846 0 -5.51208e-12 1.96738e-12 0 0 1.18259e-26
7982 267 0.0015 -0.197202 -1.88548 0 3.30263e-12 -3.10308e-12 0 0 6.97122e-27
10327 345 0.0015 -0.0645802 -1.88463 0 -1.26451e-12 9.83994e-12 0 1.57149e-20 7.08547e-26
10265 343 0.0015 0.420568 -1.88507 0 6.27722e-15 1.71078e-12 0 0 1.80165e-26
1476 50 0.0015 0.567996 -1.88596 0 -9.82936e-13 -3.65559e-12 0 0 2.29991e-26
3536 118 0.0015 0.648126 -1.88476 0 4.7232e-12 2.99336e-12 0 4.71447e-20 1.74188e-26
2645 89 0.0015 -0.585795 -1.88349 0 -4.27328e-13 -2.78149e-14 0 5.32605e-21 1.01782e-28
6071 203 0.0015 -0.405575 -1.882 0 5.38438e-12 1.81714e-12 0 0 6.39623e-27
6070 203 0.0015 -0.403759 -1.88287 0 1.00653e-12 3.11519e-12 0 0 4.31264e-28
6069 203 0.0015 -0.401942 -1.88373 0 -2.68218e-13 -1.82283e-11 0 0 3.53044e-26
7985 267 0.0015 -0.204179 -1.88284 0 2.38589e-13 -7.45154e-12 0 0 4.00786e-27
7984 267 0.0015 -0.201853 -1.88372 0 1.97784e-12 3.56808e-12 0 0 9.8164e-27
1954 66 0.0015 0.0141981 -1.88304 0 4.64061e-13 -4.60853e-12 0 1.04021e-20 3.96127e-26
6002 201 0.0015 0.493952 -1.88275 0 -4.02931e-13 -9.09364e-13 0 0 1.50011e-27
1477 50 0.0015 0.570222 -1.88304 0 -4.4948e-12 -2.86808e-12 0 0 1.6683e-26
3535 118 0.0015 0.650663 -1.88285 0 -1.14672e-11 -5.0425e-12 0 3.14298e-20 7.17271e-26
2646 89 0.0015 -0.589516 -1.88064 0 6.80134e-13 4.26003e-14 0 5.32605e-21 1.72775e-28
6073 203 0.0015 -0.409209 -1.88028 0 8.58999e-12 -7.4913e-12 0 0 3.91669e-26
6072 203 0.0015 -0.407392 -1.88114 0 -1.01503e-11 4.27687e-12 0 0 3.92833e-26
7988 267 0.0015 -0.211156 -1.8802 0 4.77123e-12 2.75227e-12 0 2.00918e-20 5.15856e-27
7987 267 0.0015 -0.208831 -1.88108 0 -7.04176e-12 -4.84123e-12 0 1.00459e-20 1.14102e-26
7986 267 0.0015 -0.206505 -1.88196 0 5.93697e-12 5.92563e-12 0 0 1.10091e-26
8011 268 0.0015 -0.176367 -1.88159 0 2.8587e-13 7.93193e-13 0 0 2.59282e-27
10328 345 0.0015 -0.065257 -1.88152 0 -1.12765e-13 -1.87295e-12 0 3.14298e-20 1.45061e-27
8044 269 0.0015 0.1534 -1.88043 0 1.24554e-12 -1.23472e-11 0 0 1.4568e-25
10266 343 0.0015 0.421289 -1.88111 0 -1.42091e-12 -1.01744e-11 0 0 6.44066e-26
1478 50 0.0015 0.572449 -1.88013 0 5.65918e-12 5.78513e-12 0 0 3.28848e-26
3534 118 0.0015 0.653201 -1.88093 0 7.43613e-12 2.70385e-12 0 1.57149e-20 5.60255e-26
10292 344 0.0015 -0.465124 -1.8785 0 4.28184e-12 -2.77907e-12 0 1.68424e-20 1.37183e-26
10291 344 0.0015 -0.4623 -1.87941 0 -8.12475e-13 6.1348e-13 0 0 7.61282e-28
6074 203 0.0015 -0.411025 -1.87942 0 -5.04925e-12 3.79155e-12 0 0 1.07197e-26
6075 203 0.0015 -0.412842 -1.87856 0 6.87736e-12 -9.28132e-13 0 2.48474e-20 1.23642e-26
7990 267 0.0015 -0.215808 -1.87844 0 8.43736e-12 -2.22272e-12 0 1.00459e-20 3.0965e-26
7989 267 0.0015 -0.213482 -1.87932 0 -8.59732e-12 2.16954e-12 0 2.00918e-20 3.14184e-26
10329 345 0.0015 -0.0659339 -1.87841 0 -1.00573e-12 5.3777e-12 0 5.50021e-20 1.9636e-26
1955 66 0.0015 0.0137179 -1.87827 0 3.18388e-13 -3.06023e-12 0 5.20104e-21 7.91712e-27
10201 341 0.0015 0.290108 -1.87875 0 2.12591e-13 -1.91613e-12 0 0 6.99409e-27
3533 118 0.0015 0.655738 -1.87902 0 5.43832e-12 4.4772e-12 0 0 3.91461e-26
2647 89 0.0015 -0.593237 -1.87778 0 -2.59936e-13 3.84941e-13 0 1.06521e-20 1.27255e-28
10294 344 0.0015 -0.470773 -1.87669 0 7.85027e-12 -2.18093e-12 0 5.89485e-20 3.15233e-26
10293 344 0.0015 -0.467948 -1.87759 0 -8.72161e-12 4.35543e-12 0 3.36849e-20 3.94505e-26
6077 203 0.0015 -0.416475 -1.87683 0 2.50415e-12 -1.73232e-12 0 2.48474e-20 7.07537e-27
6076 203 0.0015 -0.414658 -1.87769 0 -4.00338e-12 -1.05458e-12 0 2.48474e-20 7.71888e-27
6034 202 0.0015 -0.327828 -1.87791 0 -8.58428e-13 1.40592e-12 0 0 4.45846e-27
7992 267 0.0015 -0.22046 -1.87668 0 -1.33879e-12 6.61298e-12 0 0 7.12891e-27
7991 267 0.0015 -0.218134 -1.87756 0 -4.5928e-13 -3.31237e-12 0 0 1.11448e-26
10267 343 0.0015 0.42201 -1.87716 0 1.21896e-12 8.71791e-12 0 0 5.51524e-26
1479 50 0.0015 0.574675 -1.87722 0 -2.63614e-12 -3.33337e-12 0 0 1.74865e-26
3532 118 0.0015 0.658275 -1.8771 0 -8.37333e-12 -5.85213e-12 0 0 5.02176e-26
2648 89 0.0015 -0.596958 -1.87493 0 2.61543e-12 -2.65235e-12 0 1.59781e-20 1.58953e-26
10296 344 0.0015 -0.476421 -1.87487 0 1.44764e-12 -1.27397e-12 0 5.89485e-20 1.99418e-27
10295 344 0.0015 -0.473597 -1.87578 0 -4.14826e-12 1.96301e-13 0 5.89485e-20 6.98076e-27
6080 203 0.0015 -0.421925 -1.87425 0 -4.11655e-12 1.03641e-11 0 2.48474e-20 2.27134e-26
6079 203 0.0015 -0.420108 -1.87511 0 1.02416e-11 -1.35875e-11 0 0 6.61282e-26
6078 203 0.0015 -0.418291 -1.87597 0 -9.33329e-12 9.72146e-12 0 0 5.29525e-26
7995 267 0.0015 -0.227437 -1.87404 0 -5.14494e-12 -5.96889e-12 0 2.00918e-20 2.57393e-27
7994 267 0.0015 -0.225111 -1.87492 0 7.08824e-12 4.12008e-12 0 1.00459e-20 1.20843e-26
7993 267 0.0015 -0.222785 -1.8758 0 -5.67904e-12 -4.79186e-12 0 0 1.12819e-26
10330 345 0.0015 -0.0666107 -1.87531 0 3.22268e-12 -1.44104e-11 0 3.92872e-20 1.09539e-25
6003 201 0.0015 0.496967 -1.87498 0 1.65196e-13 2.63069e-13 0 0 1.28039e-28
1480 50 0.0015 0.576901 -1.87431 0 9.36408e-14 7.92807e-13 0 6.81478e-21 3.54325e-28
3531 118 0.0015 0.660812 -1.87519 0 3.36751e-12 3.31911e-12 0 0 1.23248e-26
2649 89 0.0015 -0.600679 -1.87207 0 -5.26204e-12 4.25577e-12 0 1.06521e-20 2.9844e-26
10299 344 0.0015 -0.484893 -1.87215 0 1.09936e-11 -2.49922e-12 0 0 5.31961e-26
10298 344 0.0015 -0.482069 -1.87306 0 -6.17598e-12 6.15733e-13 0 1.68424e-20 2.00354e-26
10297 344 0.0015 -0.479245 -1.87396 0 1.65355e-12 1.59349e-12 0 3.36849e-20 1.47047e-27
6082 203 0.0015 -0.425558 -1.87252 0 -2.89362e-12 4.753e-13 0 2.48474e-20 4.25004e-27
6081 203 0.0015 -0.423741 -1.87338 0 3.04385e-12 -5.063e-12 0 2.48474e-20 6.85942e-27
7997 267 0.0015 -0.232089 -1.87228 0 -4.50654e-12 8.58403e-13 0 2.00918e-20 9.61406e-27
7996 267 0.0015 -0.229763 -1.87316 0 7.00911e-12 3.91551e-12 0 2.00918e-20 1.07162e-26
10331 345 0.0015 -0.0672875 -1.8722 0 -4.73797e-12 1.98826e-11 0 2.35723e-20 1.84411e-25
1956 66 0.0015 0.0132378 -1.87349 0 -5.05668e-13 5.17772e-12 0 0 1.82748e-26
8045 269 0.0015 0.152704 -1.87369 0 -1.16616e-12 1.12874e-11 0 0 1.24801e-25
10202 341 0.0015 0.289307 -1.87202 0 -1.60239e-13 1.6925e-12 0 0 7.09214e-27
4531 152 0.0015 0.366216 -1.8733 0 -2.84776e-13 1.79355e-12 0 0 7.99146e-27
10268 343 0.0015 0.422731 -1.8732 0 -4.23894e-13 -2.45295e-12 0 0 5.03871e-27
3530 118 0.0015 0.66335 -1.87327 0 4.54136e-13 -9.84593e-13 0 0 1.82408e-27
10301 344 0.0015 -0.490541 -1.87033 0 6.62808e-12 -9.48457e-14 0 0 1.76598e-26
10300 344 0.0015 -0.487717 -1.87124 0 -1.06031e-11 1.21593e-12 0 0 4.76915e-26
6084 203 0.0015 -0.429191 -1.8708 0 -2.73103e-12 -7.95399e-12 0 2.48474e-20 4.83177e-28
6083 203 0.0015 -0.427374 -1.87166 0 1.13263e-12 2.27507e-12 0 0 2.10348e-30
6035 202 0.0015 -0.332631 -1.87017 0 9.21522e-13 -1.39963e-12 0 0 4.51315e-27
7999 267 0.0015 -0.23674 -1.87052 0 -6.11953e-13 -1.43222e-12 0 4.01836e-20 2.10412e-28
7998 267 0.0015 -0.234415 -1.8714 0 -2.45194e-15 -1.53737e-12 0 3.01377e-20 6.43966e-28
1481 50 0.0015 0.579128 -1.8714 0 -2.61941e-13 -1.51086e-12 0 6.81478e-21 9.60865e-28
3529 118 0.0015 0.665887 -1.87136 0 -4.56752e-12 -3.23497e-12 0 0 2.02157e-26
2650 89 0.0015 -0.6044 -1.86922 0 1.88804e-12 -1.05215e-12 0 5.32605e-21 1.56951e-26
10303 344 0.0015 -0.49619 -1.86852 0 7.69265e-12 -4.80877e-12 0 0 3.35225e-26
10302 344 0.0015 -0.493366 -1.86943 0 -5.27007e-12 2.38442e-12 0 0 1.40552e-26
6087 203 0.0015 -0.434641 -1.86821 0 4.2172e-12 1.78604e-11 0 0 5.3081e-27
6085 203 0.0015 -0.431008 -1.86994 0 6.77674e-12 2.00157e-11 0 2.48474e-20 1.78533e-27
6086 203 0.0015 -0.432824 -1.86908 0 -7.47782e-12 -2.6206e-11 0 2.48474e-20 6.16228e-27
8001 267 0.0015 -0.241392 -1.86876 0 -3.17102e-12 -8.63147e-13 0 1.00459e-20 2.63397e-27
8000 267 0.0015 -0.239066 -1.86964 0 2.98297e-12 1.88799e-12 0 3.01377e-20 2.12005e-27
8012 268 0.0015 -0.171924 -1.86923 0 -2.60383e-13 -7.19597e-13 0 1.90242e-21 2.61494e-27
10332 345 0.0015 -0.0679644 -1.86909 0 2.70495e-12 -1.03589e-11 0 1.57149e-20 9.40359e-26
1957 66 0.0015 0.0127576 -1.86871 0 4.07649e-13 -4.3107e-12 0 0 1.3905e-26
10269 343 0.0015 0.423451 -1.86924 0 1.03176e-12 5.0265e-12 0 1.24237e-20 2.51302e-26
1482 50 0.0015 0.581354 -1.86848 0 -2.89511e-12 -2.38598e-12 0 6.81478e-21 2.06276e-26
3528 118 0.0015 0.668424 -1.86944 0 5.22288e-12 4.70017e-12 0 0 2.41817e-26
2651 89 0.0015 -0.608121 -1.86636 0 1.00295e-12 -1.55688e-12 0 5.32605e-21 2.16749e-27
10305 344 0.0015 -0.501838 -1.8667 0 -4.22782e-12 3.29123e-13 0 0 3.58171e-26
10304 344 0.0015 -0.499014 -1.86761 0 -6.68927e-12 3.75547e-12 0 0 2.77191e-26
6089 203 0.0015 -0.438274 -1.86649 0 3.91535e-12 5.92099e-12 0 0 4.56315e-27
6088 203 0.0015 -0.436457 -1.86735 0 -5.39361e-12 -7.72341e-12 0 0 3.82291e-27
8004 267 0.0015 -0.248369 -1.86612 0 -4.02758e-12 8.93049e-12 0 1.00459e-20 1.79821e-26
8003 267 0.0015 -0.246044 -1.867 0 5.45859e-12 -9.06939e-12 0 0 2.40113e-26
8002 267 0.0015 -0.243718 -1.86788 0 -1.38109e-12 4.48664e-12 0 0 1.08171e-26
8046 269 0.0015 0.152008 -1.86695 0 4.63563e-13 -4.37679e-12 0 0 4.15555e-26
6004 201 0.0015 0.499982 -1.86721 0 -1.88667e-13 -3.08828e-13 0 0 1.85911e-28
3527 118 0.0015 0.670962 -1.86752 0 2.23886e-12 1.05224e-12 0 0 2.43543e-26
10307 344 0.0015 -0.507486 -1.86489 0 -6.93678e-12 1.60187e-12 0 0 4.03958e-26
10306 344 0.0015 -0.504662 -1.8658 0 1.28761e-11 -3.22347e-12 0 0 7.25101e-26
6090 203 0.0015 -0.440091 -1.86563 0 3.79431e-14 -3.32295e-12 0 0 1.18829e-27
8006 267 0.0015 -0.253021 -1.86436 0 -2.31379e-12 7.81708e-12 0 2.00918e-20 8.39197e-27
8005 267 0.0015 -0.250695 -1.86524 0 2.39186e-12 -7.59548e-12 0 2.00918e-20 8.37387e-27
10333 345 0.0015 -0.0686412 -1.86599 0 5.94301e-13 -3.04612e-12 0 3.14298e-20 1.08764e-26
10203 341 0.0015 0.288506 -1.8653 0 1.88077e-14 -6.41656e-13 0 0 1.51475e-27
4532 152 0.0015 0.364868 -1.86469 0 6.16243e-13 -3.88974e-12 0 0 1.89052e-26
10270 343 0.0015 0.424172 -1.86529 0 -1.5114e-12 -9.19621e-12 0 1.24237e-20 4.85053e-26
1483 50 0.0015 0.58358 -1.86557 0 -7.41693e-13 -2.18645e-12 0 0 6.46381e-26
3526 118 0.0015 0.673499 -1.86561 0 -9.15735e-12 -6.71103e-12 0 0 5.85129e-26
2652 89 0.0015 -0.611842 -1.86351 0 -1.03855e-12 1.47955e-12 0 5.32605e-21 2.11208e-27
10310 344 0.0015 -0.515959 -1.86217 0 4.48741e-12 -2.18228e-13 0 1.68424e-20 1.03094e-26
10309 344 0.0015 -0.513134 -1.86307 0 -8.9623e-13 -1.22268e-12 0 1.68424e-20 8.685e-28
10308 344 0.0015 -0.51031 -1.86398 0 -8.62692e-14 8.84163e-13 0 1.68424e-20 1.70788e-28
6036 202 0.0015 -0.337434 -1.86244 0 9.37472e-13 -1.67963e-12 0 0 1.40434e-26
8008 267 0.0015 -0.257673 -1.8626 0 3.34564e-12 3.52678e-12 0 0 4.97473e-27
8007 267 0.0015 -0.255347 -1.86348 0 6.96686e-13 -7.10218e-12 0 1.00459e-20 4.51465e-27
10334 345 0.0015 -0.0693181 -1.86288 0 -3.25046e-13 9.64319e-13 0 3.14298e-20 1.61627e-26
1958 66 0.0015 0.0122775 -1.86393 0 -6.54465e-14 9.02957e-13 0 5.20104e-21 3.15284e-27
1484 50 0.0015 0.585807 -1.86266 0 8.12255e-12 1.18489e-11 0 6.81478e-21 1.05406e-25
3525 118 0.0015 0.676036 -1.86369 0 9.15735e-12 6.71103e-12 0 0 5.85129e-26
2653 89 0.0015 -0.615563 -1.86065 0 2.77236e-12 -2.14299e-12 0 5.32605e-21 9.03531e-27
10312 344 0.0015 -0.521607 -1.86035 0 1.07822e-11 -5.57952e-12 0 0 6.09537e-26
10311 344 0.0015 -0.518783 -1.86126 0 -9.78856e-12 3.77743e-12 0 0 5.06823e-26
8010 267 0.0015 -0.262324 -1.86085 0 3.3025e-12 -9.2114e-13 0 0 8.05448e-27
8009 267 0.0015 -0.259998 -1.86172 0 -6.2575e-12 4.26292e-13 0 0 1.26838e-26
8047 269 0.0015 0.151313 -1.86021 0 -5.0633e-15 -8.99474e-14 0 0 2.32459e-28
10271 343 0.0015 0.424893 -1.86133 0 1.3189e-12 9.76799e-12 0 1.24237e-20 5.43914e-26
3524 118 0.0015 0.678573 -1.86178 0 -2.23886e-12 -1.05224e-12 0 0 2.43543e-26
10314 344 0.0015 -0.527255 -1.85854 0 -4.16549e-12 2.83352e-12 0 0 1.68534e-26
10313 344 0.0015 -0.524431 -1.85944 0 -4.06199e-12 2.36249e-12 0 0 1.99611e-26
10335 345 0.0015 -0.0699949 -1.85978 0 -2.46576e-12 1.06263e-11 0 1.57149e-20 6.81865e-26
1959 66 0.0015 0.0117974 -1.85915 0 1.7894e-13 -2.05478e-12 0 1.04021e-20 9.38968e-27
4771 160 0.0015 0.0785585 -1.85825 0 2.59292e-14 -8.95368e-13 0 0 2.05071e-27
10204 341 0.0015 0.287705 -1.85857 0 -5.84716e-14 1.09145e-12 0 0 1.51035e-27
6005 201 0.0015 0.502997 -1.85945 0 1.07349e-12 2.53764e-12 0 0 1.44529e-26
1485 50 0.0015 0.588033 -1.85975 0 -3.47544e-12 -6.28872e-12 0 1.36296e-20 6.11675e-26
3523 118 0.0015 0.681111 -1.85986 0 -5.22288e-12 -4.70017e-12 0 0 2.41817e-26
2654 89 0.0015 -0.619284 -1.8578 0 -1.56014e-12 6.65304e-13 0 0 8.11147e-27
10316 344 0.0015 -0.532903 -1.85672 0 3.03344e-12 1.36601e-12 0 1.68424e-20 1.83493e-26
10315 344 0.0015 -0.530079 -1.85763 0 5.1969e-12 -4.66869e-12 0 1.68424e-20 1.96335e-26
8013 268 0.0015 -0.167482 -1.85688 0 -1.583e-13 -4.52539e-13 0 1.90242e-21 6.10179e-28
10336 345 0.0015 -0.0706718 -1.85667 0 2.46872e-12 -1.07435e-11 0 0 6.8702e-26
4533 152 0.0015 0.36352 -1.85607 0 -2.64448e-13 1.73206e-12 0 0 1.12457e-26
10272 343 0.0015 0.425614 -1.85738 0 -1.17959e-12 -8.99622e-12 0 0 4.70324e-26
1486 50 0.0015 0.59026 -1.85684 0 3.47544e-12 6.28872e-12 0 1.36296e-20 6.11675e-26
3522 118 0.0015 0.683648 -1.85795 0 4.56752e-12 3.23497e-12 0 0 2.02157e-26
3521 118 0.0015 0.686185 -1.85603 0 -4.54136e-13 9.84593e-13 0 0 1.82408e-27
2655 89 0.0015 -0.623004 -1.85494 0 -3.36378e-12 3.2694e-12 0 5.32605e-21 2.07212e-26
10318 344 0.0015 -0.538552 -1.85491 0 5.94472e-12 -2.66104e-13 0 0 1.90503e-26
10317 344 0.0015 -0.535727 -1.85581 0 -8.96982e-12 1.59434e-12 0 1.68424e-20 3.36284e-26
6037 202 0.0015 -0.342237 -1.85471 0 -1.40431e-12 2.49942e-12 0 2.74394e-21 1.43799e-26
1960 66 0.0015 0.0113172 -1.85437 0 -7.44324e-13 7.51955e-12 0 1.04021e-20 4.18027e-26
3520 118 0.0015 0.688722 -1.85412 0 -3.36751e-12 -3.31911e-12 0 0 1.23248e-26
2656 89 0.0015 -0.626725 -1.85209 0 7.41549e-12 -6.33838e-12 0 1.06521e-20 6.41807e-26
10320 344 0.0015 -0.5442 -1.85309 0 1.34171e-12 1.35094e-13 0 0 1.25894e-27
10319 344 0.0015 -0.541376 -1.854 0 -2.65632e-12 -7.98811e-13 0 0 2.16491e-27
10337 345 0.0015 -0.0713486 -1.85356 0 3.19109e-13 1.48415e-12 0 0 7.22546e-27
8048 269 0.0015 0.150617 -1.85348 0 1.8063e-13 -1.66934e-12 0 0 4.19198e-27
10273 343 0.0015 0.426335 -1.85342 0 4.45534e-13 3.62088e-12 0 1.24237e-20 1.62293e-26
1487 50 0.0015 0.592486 -1.85392 0 -8.12255e-12 -1.18489e-11 0 6.81478e-21 1.05406e-25
3519 118 0.0015 0.69126 -1.8522 0 8.37333e-12 5.85213e-12 0 0 5.02176e-26
10338 345 0.0015 -0.0720254 -1.85046 0 -8.93395e-13 -1.77787e-12 0 0 8.0037e-27
10205 341 0.0015 0.286904 -1.85184 0 -3.91855e-13 2.92603e-12 0 0 1.90632e-26
6006 201 0.0015 0.506013 -1.85168 0 -1.63411e-12 -3.98348e-12 0 0 2.19576e-26
1488 50 0.0015 0.594712 -1.85101 0 7.41693e-13 2.18645e-12 0 0 6.46381e-26
3518 118 0.0015 0.693797 -1.85028 0 -5.43832e-12 -4.4772e-12 0 0 3.91461e-26
2657 89 0.0015 -0.630446 -1.84923 0 -9.64816e-12 7.57983e-12 0 1.06521e-20 9.83041e-26
1961 66 0.0015 0.0108371 -1.84959 0 1.09273e-12 -1.03747e-11 0 5.20104e-21 7.2772e-26
4772 160 0.0015 0.0782973 -1.84905 0 -8.23406e-14 2.9338e-12 0 0 1.26791e-26
10274 343 0.0015 0.427056 -1.84946 0 -4.03e-13 -1.05641e-12 0 1.24237e-20 1.85381e-27
1489 50 0.0015 0.596939 -1.8481 0 2.89511e-12 2.38598e-12 0 6.81478e-21 2.06276e-26
3517 118 0.0015 0.696334 -1.84837 0 -7.43613e-12 -2.70385e-12 0 1.57149e-20 5.60255e-26
2658 89 0.0015 -0.634167 -1.84638 0 5.7681e-12 -3.85002e-12 0 5.32605e-21 5.44236e-26
6038 202 0.0015 -0.34704 -1.84697 0 -1.21759e-12 1.69765e-12 0 2.74394e-21 1.81872e-26
10339 345 0.0015 -0.0727023 -1.84735 0 4.56799e-13 2.49015e-12 0 0 6.8676e-27
8049 269 0.0015 0.149922 -1.84674 0 -6.53135e-14 6.9432e-13 0 0 5.26657e-27
6541 219 0.0015 0.213251 -1.84656 0 1.02551e-13 -1.24357e-12 0 0 3.07449e-27
4534 152 0.0015 0.362172 -1.84745 0 -1.02365e-13 4.85221e-13 0 5.72705e-21 3.69858e-28
3516 118 0.0015 0.698871 -1.84645 0 1.14672e-11 5.0425e-12 0 3.14298e-20 7.17271e-26
8014 268 0.0015 -0.163039 -1.84452 0 -5.9073e-13 -1.61177e-12 0 1.90242e-21 1.69517e-26
10340 345 0.0015 -0.0733791 -1.84424 0 -1.81935e-12 6.8616e-12 0 1.57149e-20 3.9453e-26
1962 66 0.0015 0.010357 -1.84481 0 -8.02464e-13 6.39492e-12 0 0 4.12291e-26
10206 341 0.0015 0.286103 -1.84511 0 4.37279e-13 -3.91402e-12 0 3.6872e-21 2.00662e-26
10275 343 0.0015 0.427777 -1.84551 0 1.4492e-12 4.51082e-12 0 1.24237e-20 1.48885e-26
1490 50 0.0015 0.599165 -1.84519 0 2.61941e-13 1.51086e-12 0 6.81478e-21 9.60865e-28
3515 118 0.0015 0.701409 -1.84454 0 -4.7232e-12 -2.99336e-12 0 4.71447e-20 1.74188e-26
2659 89 0.0015 -0.637888 -1.84352 0 3.43896e-13 -9.78157e-13 0 0 2.64023e-27
6007 201 0.0015 0.509028 -1.84391 0 1.3188e-12 3.31885e-12 0 0 1.4766e-26
1491 50 0.0015 0.601391 -1.84228 0 -9.36408e-14 -7.92807e-13 0 6.81478e-21 3.54325e-28
3514 118 0.0015 0.703946 -1.84262 0 -4.84297e-13 3.15e-12 0 3.14298e-20 1.60824e-27
2660 89 0.0015 -0.641609 -1.84066 0 2.67158e-13 -2.72198e-13 0 0 6.20167e-27
10341 345 0.0015 -0.074056 -1.84114 0 2.7618e-12 -1.32458e-11 0 3.92872e-20 8.08464e-26
1963 66 0.0015 0.00987681 -1.84004 0 -2.93347e-14 2.59694e-12 0 0 1.81239e-26
10276 343 0.0015 0.428498 -1.84155 0 -1.4492e-12 -4.51082e-12 0 1.24237e-20 1.48885e-26
3513 118 0.0015 0.706483 -1.84071 0 2.87288e-12 -2.34027e-12 0 1.57149e-20 1.01095e-27
6039 202 0.0015 -0.351842 -1.83924 0 3.15468e-12 -4.91394e-12 0 2.74394e-21 4.35389e-26
10342 345 0.0015 -0.0747328 -1.83803 0 -1.16112e-12 6.89806e-12 0 5.50021e-20 4.15642e-26
4773 160 0.0015 0.0780361 -1.83985 0 1.39378e-13 -5.14128e-12 0 2.71488e-21 3.5253e-26
8050 269 0.0015 0.149226 -1.84 0 -1.47036e-13 1.14759e-12 0 0 1.41446e-27
6542 219 0.0015 0.21269 -1.83947 0 -5.43861e-14 4.69788e-13 0 0 4.261e-27
10207 341 0.0015 0.285302 -1.83839 0 2.61459e-14 2.27178e-13 0 3.6872e-21 1.64715e-27
4535 152 0.0015 0.360823 -1.83883 0 -8.40466e-14 6.26849e-13 0 1.14541e-20 1.42801e-27
1492 50 0.0015 0.603618 -1.83936 0 2.63614e-12 3.33337e-12 0 0 1.74865e-26
3512 118 0.0015 0.70902 -1.83879 0 4.59881e-13 2.80099e-12 0 0 9.529e-27
2661 89 0.0015 -0.64533 -1.83781 0 -1.21944e-12 1.80239e-12 0 0 4.00898e-27
10277 343 0.0015 0.429219 -1.8376 0 4.03e-13 1.05641e-12 0 1.24237e-20 1.85381e-27
6008 201 0.0015 0.512043 -1.83614 0 -1.42927e-12 -3.74726e-12 0 0 1.89161e-26
1493 50 0.0015 0.605844 -1.83645 0 -5.65918e-12 -5.78513e-12 0 0 3.28848e-26
3511 118 0.0015 0.711558 -1.83688 0 -2.22789e-12 -2.21148e-12 0 0 8.54452e-27
2662 89 0.0015 -0.649051 -1.83495 0 -3.18586e-12 1.69682e-12 0 0 2.00232e-26
10343 345 0.0015 -0.0754097 -1.83493 0 -7.9351e-13 2.05056e-12 0 3.92872e-20 4.6871e-27
1964 66 0.0015 0.00939668 -1.83526 0 9.42216e-14 -2.65202e-12 0 0 1.79705e-26
2663 89 0.0015 -0.652772 -1.8321 0 7.32949e-12 -5.598e-12 0 0 5.67075e-26
10171 340 0.0015 -0.234195 -1.83312 0 1.55673e-14 -4.57261e-14 0 0 4.6616e-30
8015 268 0.0015 -0.158597 -1.83216 0 1.21098e-12 3.33637e-12 0 0 2.38349e-26
8051 269 0.0015 0.14853 -1.83326 0 4.62254e-14 1.966e-13 0 0 8.66911e-28
6543 219 0.0015 0.212128 -1.83239 0 -1.41463e-14 5.44039e-13 0 0 1.29253e-27
10278 343 0.0015 0.429939 -1.83364 0 -4.45534e-13 -3.62088e-12 0 1.24237e-20 1.62293e-26
1494 50 0.0015 0.60807 -1.83354 0 4.4948e-12 2.86808e-12 0 0 1.6683e-26
6040 202 0.0015 -0.356645 -1.83151 0 -2.232e-12 3.53681e-12 0 2.74394e-21 2.84728e-26
10344 345 0.0015 -0.0760865 -1.83182 0 1.58131e-12 -6.99889e-12 0 1.57149e-20 2.56584e-26
1965 66 0.0015 0.00891654 -1.83048 0 9.15816e-14 -6.71153e-13 0 0 1.17089e-27
4774 160 0.0015 0.0777749 -1.83066 0 -9.37855e-14 3.61721e-12 0 2.71488e-21 2.53012e-26
10208 341 0.0015 0.284501 -1.83166 0 7.66751e-14 -9.33114e-13 0 3.6872e-21 4.6531e-27
4536 152 0.0015 0.359475 -1.83021 0 2.18323e-14 1.86229e-14 0 1.71811e-20 2.83591e-27
1495 50 0.0015 0.610297 -1.83063 0 9.82936e-13 3.65559e-12 0 0 2.29991e-26
2664 89 0.0015 -0.656493 -1.82924 0 -5.34506e-12 4.41606e-12 0 0 4.02216e-26
10345 345 0.0015 -0.0767633 -1.82871 0 -1.70984e-12 9.68086e-12 0 0 4.26072e-26
10279 343 0.0015 0.43066 -1.82968 0 1.17959e-12 8.99622e-12 0 0 4.70324e-26
6009 201 0.0015 0.515058 -1.82837 0 9.14345e-13 2.28247e-12 0 0 1.19148e-26
2665 89 0.0015 -0.660213 -1.82639 0 6.91797e-13 -3.61303e-13 0 0 4.30727e-27
10172 340 0.0015 -0.238704 -1.82673 0 -6.18235e-13 9.76994e-13 0 0 2.67241e-27
8052 269 0.0015 0.147835 -1.82652 0 6.04237e-14 -1.54506e-12 0 0 2.39991e-27
1496 50 0.0015 0.612523 -1.82772 0 -2.21718e-12 -3.11315e-12 0 6.81478e-21 2.23768e-26
10346 345 0.0015 -0.0774402 -1.82561 0 1.87296e-12 -1.13966e-11 0 0 5.99264e-26
1966 66 0.0015 0.0084364 -1.8257 0 2.93674e-13 -2.16709e-12 0 0 5.16826e-27
6544 219 0.0015 0.211567 -1.8253 0 -1.10141e-13 1.10187e-12 0 0 1.6193e-27
10209 341 0.0015 0.2837 -1.82493 0 -4.76489e-13 4.28522e-12 0 0 1.92277e-26
10280 343 0.0015 0.431381 -1.82573 0 -1.3189e-12 -9.76799e-12 0 1.24237e-20 5.43914e-26
1497 50 0.0015 0.614749 -1.8248 0 -3.51863e-12 -5.87701e-12 0 6.81478e-21 3.73857e-26
2666 89 0.0015 -0.663934 -1.82353 0 4.10133e-13 -1.36291e-12 0 0 1.05207e-27
6041 202 0.0015 -0.361448 -1.82377 0 -2.45167e-13 4.37631e-13 0 2.74394e-21 7.84979e-27
10347 345 0.0015 -0.078117 -1.8225 0 -1.92871e-12 9.9522e-12 0 0 4.94254e-26
2667 89 0.0015 -0.667655 -1.82068 0 9.85688e-13 6.91533e-13 0 0 7.18389e-28
10173 340 0.0015 -0.243212 -1.82034 0 1.68523e-12 -2.56293e-12 0 0 1.09873e-26
1967 66 0.0015 0.00795626 -1.82092 0 5.88201e-14 -1.20271e-12 0 0 1.83956e-26
4775 160 0.0015 0.0775136 -1.82146 0 -2.60119e-14 8.054e-13 0 2.71488e-21 5.13173e-27
4537 152 0.0015 0.358127 -1.82159 0 1.94151e-13 -1.47712e-12 0 1.14541e-20 2.6914e-27
10281 343 0.0015 0.432102 -1.82177 0 1.5114e-12 9.19621e-12 0 1.24237e-20 4.85053e-26
6010 201 0.0015 0.518074 -1.8206 0 -5.9701e-13 -1.14735e-12 0 0 2.8265e-27
1498 50 0.0015 0.616976 -1.82189 0 4.76426e-12 7.82856e-12 0 1.36296e-20 4.65601e-26
8016 268 0.0015 -0.154154 -1.81981 0 -6.26383e-13 -1.75083e-12 0 0 8.14028e-27
10348 345 0.0015 -0.0787939 -1.81939 0 4.02388e-13 3.53657e-13 0 1.57149e-20 2.39298e-26
8053 269 0.0015 0.147139 -1.81978 0 -3.99579e-14 1.3521e-12 0 0 2.05759e-27
6545 219 0.0015 0.211005 -1.81821 0 2.76207e-13 -3.34623e-12 0 0 1.36795e-26
10210 341 0.0015 0.282899 -1.8182 0 1.71033e-13 -1.59548e-12 0 0 1.79745e-26
1499 50 0.0015 0.619202 -1.81898 0 -1.21518e-12 -2.66928e-12 0 6.81478e-21 9.88777e-27
2668 89 0.0015 -0.671376 -1.81782 0 -1.43448e-12 -8.7645e-14 0 0 8.11287e-28
6042 202 0.0015 -0.366251 -1.81604 0 1.00214e-12 -1.65965e-12 0 2.74394e-21 6.02445e-27
10349 345 0.0015 -0.0794707 -1.81629 0 1.02586e-12 -7.87987e-12 0 1.57149e-20 2.77199e-26
1968 66 0.0015 0.00747613 -1.81614 0 -4.42108e-13 4.3345e-12 0 0 1.5219e-26
10282 343 0.0015 0.432823 -1.81781 0 -1.03176e-12 -5.0265e-12 0 1.24237e-20 2.51302e-26
1500 50 0.0015 0.621428 -1.81607 0 -2.99135e-13 -8.31847e-14 0 6.81478e-21 6.25136e-29
2669 89 0.0015 -0.675097 -1.81497 0 1.25049e-12 -2.92657e-13 0 0 9.7097e-28
5941 199 0.0015 0.740778 -1.81551 0 -5.93517e-13 -2.49152e-12 0 0 1.7503e-26
2670 89 0.0015 -0.678818 -1.81211 0 -6.93349e-13 3.43422e-13 0 0 7.50785e-28
10174 340 0.0015 -0.24772 -1.81396 0 -8.68835e-13 1.34594e-12 0 0 8.59582e-27
10350 345 0.0015 -0.0801475 -1.81318 0 -6.19422e-13 4.07053e-12 0 1.57149e-20 1.49107e-26
4776 160 0.0015 0.0772524 -1.81226 0 7.58287e-14 -2.73249e-12 0 2.71488e-21 9.56014e-27
8054 269 0.0015 0.146443 -1.81304 0 -7.08775e-14 -3.30306e-14 0 3.6872e-21 4.85495e-28
4538 152 0.0015 0.356779 -1.81297 0 4.85466e-16 1.38827e-13 0 5.72705e-21 2.06037e-27
10283 343 0.0015 0.433544 -1.81386 0 4.23894e-13 2.45295e-12 0 0 5.03871e-27
6011 201 0.0015 0.521089 -1.81283 0 8.3156e-13 1.60919e-12 0 0 3.91529e-27
1969 66 0.0015 0.00699599 -1.81136 0 1.31548e-13 -6.32153e-13 0 0 2.33544e-27
6546 219 0.0015 0.210443 -1.81113 0 -4.65315e-14 3.83726e-13 0 0 2.08411e-26
10211 341 0.0015 0.282098 -1.81148 0 6.31076e-13 -5.24328e-12 0 0 3.37265e-26
6043 202 0.0015 -0.371054 -1.8083 0 -8.96346e-13 1.48653e-12 0 0 4.61924e-27
10284 343 0.0015 0.434265 -1.8099 0 -1.21896e-12 -8.71791e-12 0 0 5.51524e-26
10175 340 0.0015 -0.252228 -1.80757 0 -1.2341e-12 1.81974e-12 0 0 7.64189e-27
8017 268 0.0015 -0.149712 -1.80745 0 6.6074e-13 1.87089e-12 0 0 9.49789e-27
1970 66 0.0015 0.00651585 -1.80658 0 -8.78599e-14 -4.08928e-15 0 5.20104e-21 8.36801e-28
8055 269 0.0015 0.145748 -1.8063 0 1.50183e-13 -9.96804e-13 0 7.37441e-21 1.04725e-27
5942 199 0.0015 0.743061 -1.80618 0 1.49465e-12 6.27783e-12 0 2.60052e-21 5.79211e-26
6547 219 0.0015 0.209882 -1.80404 0 -4.69752e-13 6.16959e-12 0 0 4.17307e-26
10212 341 0.0015 0.281297 -1.80475 0 -5.38069e-13 4.00798e-12 0 3.6872e-21 3.08772e-26
4539 152 0.0015 0.35543 -1.80435 0 -4.13457e-13 2.47192e-12 0 0 9.80598e-27