ITEM: TIMESTEP
101480
ITEM: NUMBER OF ATOMS
10500
ITEM: BOX BOUNDS pp pp pp
-1.0249999999999999e+00 1.0249999999999999e+00
-2.0000000000000000e+00 2.0000000000000000e+00
-5.0000000000000003e-02 5.0000000000000003e-02
ITEM: ATOMS id type radius x y z fx fy fz c_bendingE c_stretchingE
10321 345 0.0015 -0.0605191 -1.90326 0 2.24226e-12 -8.88216e-12 0 0 7.40303e-26
6031 202 0.0015 -0.31342 -1.90111 0 1.12251e-12 -1.81301e-12 0 0 1.14986e-26
10322 345 0.0015 -0.061196 -1.90016 0 -2.28534e-12 5.80241e-12 0 1.57149e-20 8.19779e-26
8041 269 0.0015 0.155487 -1.90065 0 1.9528e-14 -2.43563e-13 0 0 1.12295e-28
10261 343 0.0015 0.417684 -1.90089 0 -1.32671e-13 -1.56166e-13 0 0 3.51645e-29
1471 50 0.0015 0.556864 -1.90052 0 -2.0386e-12 -1.85999e-12 0 0 7.50987e-27
10323 345 0.0015 -0.0618728 -1.89705 0 -3.35362e-14 6.03977e-12 0 1.57149e-20 1.5418e-26
1951 66 0.0015 0.0156385 -1.89738 0 3.48909e-13 -3.36361e-12 0 0 1.52566e-26
10262 343 0.0015 0.418405 -1.89694 0 1.25997e-13 -1.15379e-12 0 1.24237e-20 1.89383e-27
1472 50 0.0015 0.559091 -1.8976 0 2.4667e-12 1.46221e-12 0 0 7.51307e-27
2641 89 0.0015 -0.570912 -1.89491 0 4.2146e-13 -4.64532e-13 0 0 4.9622e-28
1473 50 0.0015 0.561317 -1.89469 0 -2.51002e-12 -2.60217e-12 0 0 1.35514e-26
2642 89 0.0015 -0.574633 -1.89206 0 1.97469e-12 -1.00681e-12 0 0 1.06861e-26
6032 202 0.0015 -0.318223 -1.89337 0 -2.27822e-12 3.67405e-12 0 0 2.36347e-26
10324 345 0.0015 -0.0625496 -1.89394 0 -1.96059e-13 -1.80847e-12 0 1.57149e-20 8.70658e-27
1952 66 0.0015 0.0151583 -1.8926 0 -4.66226e-13 4.23196e-12 0 0 1.62797e-26
8042 269 0.0015 0.154791 -1.89391 0 -3.06962e-14 6.17266e-13 0 0 3.73935e-28
10263 343 0.0015 0.419126 -1.89298 0 5.6029e-13 5.30045e-12 0 1.24237e-20 1.99562e-26
3540 118 0.0015 0.637977 -1.89243 0 6.71987e-13 1.27404e-12 0 0 1.50156e-27
6061 203 0.0015 -0.387409 -1.89062 0 -1.89593e-12 6.84015e-12 0 0 1.20502e-26
10325 345 0.0015 -0.0632265 -1.89084 0 2.30967e-13 -2.50362e-12 0 0 2.75678e-27
10231 342 0.0015 0.215 -1.89 0 -1.52751e-12 0 0 0 4.46989e-28
10232 342 0.0015 0.21569 -1.89 0 5.10672e-12 0 0 0 2.90177e-27
10233 342 0.0015 0.216379 -1.89 0 -7.67864e-12 0 0 0 5.67383e-27
10234 342 0.0015 0.217069 -1.89 0 5.79537e-12 0 0 0 3.7702e-27
10235 342 0.0015 0.217759 -1.89 0 -1.37662e-12 0 0 0 5.70731e-28
10236 342 0.0015 0.218448 -1.89 0 2.53992e-13 0 0 0 8.25545e-29
10237 342 0.0015 0.219138 -1.89 0 -2.06482e-12 0 0 0 4.89008e-28
10238 342 0.0015 0.219828 -1.89 0 3.98454e-12 0 0 0 1.61669e-27
10239 342 0.0015 0.220517 -1.89 0 -1.81127e-12 0 0 0 1.27974e-27
10240 342 0.0015 0.221207 -1.89 0 -7.96863e-13 0 0 0 9.1626e-29
10241 342 0.0015 0.221897 -1.89 0 -3.40433e-12 0 0 0 2.37572e-27
10242 342 0.0015 0.222586 -1.89 0 6.91755e-12 0 0 0 4.58586e-27
10243 342 0.0015 0.223276 -1.89 0 -4.09276e-12 0 0 0 2.30505e-27
10244 342 0.0015 0.223966 -1.89 0 1.19529e-12 0 0 0 1.4044e-28
10245 342 0.0015 0.224655 -1.89 0 -2.2817e-12 0 0 0 6.55753e-28
10246 342 0.0015 0.225345 -1.89 0 2.2817e-12 0 0 0 6.55753e-28
10247 342 0.0015 0.226034 -1.89 0 -1.19529e-12 0 0 0 1.4044e-28
10248 342 0.0015 0.226724 -1.89 0 4.09276e-12 0 0 0 2.30505e-27
10249 342 0.0015 0.227414 -1.89 0 -6.91755e-12 0 0 0 4.58586e-27
10250 342 0.0015 0.228103 -1.89 0 3.40433e-12 0 0 0 2.37572e-27
10251 342 0.0015 0.228793 -1.89 0 7.96863e-13 0 0 0 9.1626e-29
10252 342 0.0015 0.229483 -1.89 0 1.81127e-12 0 0 0 1.27974e-27
10253 342 0.0015 0.230172 -1.89 0 -3.98454e-12 0 0 0 1.61669e-27
10254 342 0.0015 0.230862 -1.89 0 2.06482e-12 0 0 0 4.89008e-28
10255 342 0.0015 0.231552 -1.89 0 -2.53992e-13 0 0 0 8.25545e-29
10256 342 0.0015 0.232241 -1.89 0 1.37662e-12 0 0 0 5.70731e-28
10257 342 0.0015 0.232931 -1.89 0 -5.79537e-12 0 0 0 3.7702e-27
10258 342 0.0015 0.233621 -1.89 0 7.67864e-12 0 0 0 5.67383e-27
10259 342 0.0015 0.23431 -1.89 0 -5.10672e-12 0 0 0 2.90177e-27
10260 342 0.0015 0.235 -1.89 0 1.52751e-12 0 0 0 4.46989e-28
6001 201 0.0015 0.490936 -1.89052 0 -8.62581e-13 -2.18057e-12 0 0 1.27282e-26
1474 50 0.0015 0.563543 -1.89178 0 4.77268e-12 7.07168e-12 0 0 3.76866e-26
3539 118 0.0015 0.640514 -1.89051 0 -6.18401e-13 -3.04257e-12 0 0 2.42542e-27
2643 89 0.0015 -0.578354 -1.8892 0 -1.46835e-12 2.72866e-13 0 0 1.29885e-26
6063 203 0.0015 -0.391043 -1.8889 0 7.95719e-12 1.11468e-11 0 0 3.91147e-27
6064 203 0.0015 -0.392859 -1.88804 0 -7.06651e-13 -3.21518e-12 0 2.48474e-20 1.02507e-26
6062 203 0.0015 -0.389226 -1.88976 0 -1.86643e-12 -1.52966e-11 0 0 1.20786e-26
10264 343 0.0015 0.419847 -1.88903 0 -1.80174e-12 -1.02232e-11 0 1.24237e-20 6.32175e-26
1475 50 0.0015 0.56577 -1.88887 0 -1.63664e-12 -3.06347e-12 0 6.81478e-21 2.62533e-26
3538 118 0.0015 0.643052 -1.8886 0 2.71799e-12 5.34739e-12 0 0 1.77757e-26
2644 89 0.0015 -0.582074 -1.88635 0 -1.64714e-13 8.46963e-13 0 0 3.67337e-27
6066 203 0.0015 -0.396492 -1.88631 0 4.07146e-12 -9.37278e-13 0 4.96948e-20 1.40012e-26
6065 203 0.0015 -0.394676 -1.88717 0 -8.49172e-12 1.48837e-12 0 4.96948e-20 1.99621e-26
7981 267 0.0015 -0.194876 -1.88635 0 5.54884e-13 1.1357e-12 0 0 9.49643e-30
10326 345 0.0015 -0.0639033 -1.88773 0 1.21063e-12 -1.43404e-12 0 0 9.31603e-27
1953 66 0.0015 0.0146782 -1.88782 0 -2.1903e-13 2.86096e-12 0 5.20104e-21 1.9727e-26
8043 269 0.0015 0.154095 -1.88717 0 1.79067e-13 -2.28842e-12 0 0 7.21232e-27
3537 118 0.0015 0.645589 -1.88668 0 -8.40905e-12 -8.83386e-12 0 0 6.87433e-26
6068 203 0.0015 -0.400126 -1.88459 0 -1.44975e-12 9.25558e-12 0 2.48474e-20 9.30726e-27
6067 203 0.0015 -0.398309 -1.88545 0 1.30296e-12 -2.66956e-12 0 4.96948e-20 1.61056e-27
6033 202 0.0015 -0.323025 -1.88564 0 1.4437e-13 -2.03067e-13 0 0 2.16734e-26
7983 267 0.0015 -0.199527 -1.8846 0 1.25547e-13 -2.53454e-12 0 1.00459e-20 8.96862e-27
7982 267 0.0015 -0.197202 -1.88548 0 1.26512e-12 -1.94907e-12 0 0 2.7449e-27
10327 345 0.0015 -0.0645802 -1.88463 0 -3.07726e-12 7.38037e-12 0 0 2.8957e-26
10265 343 0.0015 0.420568 -1.88507 0 2.3251e-12 9.7476e-12 0 0 6.00101e-26
1476 50 0.0015 0.567996 -1.88596 0 -2.97152e-12 -2.46727e-12 0 1.36296e-20 7.61251e-27
3536 118 0.0015 0.648126 -1.88476 0 1.10854e-11 1.11584e-11 0 0 1.07075e-25
2645 89 0.0015 -0.585795 -1.88349 0 -1.72114e-12 1.3938e-12 0 0 3.40853e-27
6071 203 0.0015 -0.405575 -1.882 0 -1.99238e-11 -8.07679e-12 0 0 6.05965e-26
6070 203 0.0015 -0.403759 -1.88287 0 1.45561e-11 8.65654e-12 0 0 4.04638e-26
6069 203 0.0015 -0.401942 -1.88373 0 -2.3537e-12 -1.15466e-11 0 2.48474e-20 8.64655e-27
7985 267 0.0015 -0.204179 -1.88284 0 5.42078e-12 -4.77193e-12 0 1.00459e-20 1.58484e-26
7984 267 0.0015 -0.201853 -1.88372 0 -4.64727e-12 6.41037e-12 0 1.00459e-20 1.52368e-26
1954 66 0.0015 0.0141981 -1.88304 0 4.23557e-13 -4.77335e-12 0 5.20104e-21 2.01678e-26
6002 201 0.0015 0.493952 -1.88275 0 1.72933e-12 4.38182e-12 0 0 2.56831e-26
1477 50 0.0015 0.570222 -1.88304 0 2.8218e-12 9.77592e-13 0 1.36296e-20 5.52592e-27
3535 118 0.0015 0.650663 -1.88285 0 -7.26886e-12 -9.11631e-12 0 0 6.53268e-26
2646 89 0.0015 -0.589516 -1.88064 0 -5.71275e-13 -2.04768e-13 0 0 6.40221e-27
6073 203 0.0015 -0.409209 -1.88028 0 4.61298e-12 -5.67e-12 0 0 1.26634e-26
6072 203 0.0015 -0.407392 -1.88114 0 7.1752e-12 7.05596e-12 0 0 2.45281e-26
7988 267 0.0015 -0.211156 -1.8802 0 -2.11731e-12 1.68151e-12 0 0 5.55254e-27
7987 267 0.0015 -0.208831 -1.88108 0 3.62143e-12 -2.09608e-12 0 0 1.32807e-26
7986 267 0.0015 -0.206505 -1.88196 0 -6.8149e-12 3.25521e-12 0 0 2.00827e-26
8011 268 0.0015 -0.176367 -1.88159 0 -2.38071e-13 -6.74416e-13 0 0 1.86564e-27
10328 345 0.0015 -0.065257 -1.88152 0 4.23555e-12 -1.10075e-11 0 0 6.15373e-26
8044 269 0.0015 0.1534 -1.88043 0 -6.43409e-13 6.56122e-12 0 0 4.8006e-26
10266 343 0.0015 0.421289 -1.88111 0 -2.04894e-12 -5.85475e-12 0 0 2.17393e-26
1478 50 0.0015 0.572449 -1.88013 0 6.27292e-14 2.84883e-12 0 6.81478e-21 6.23091e-27
3534 118 0.0015 0.653201 -1.88093 0 1.20821e-12 2.85717e-12 0 0 1.05804e-26
10292 344 0.0015 -0.465124 -1.8785 0 3.75504e-12 6.24822e-13 0 0 2.13975e-26
10291 344 0.0015 -0.4623 -1.87941 0 -4.77144e-12 1.08099e-12 0 0 1.95694e-26
6074 203 0.0015 -0.411025 -1.87942 0 2.68336e-12 6.13017e-12 0 0 1.67437e-26
6075 203 0.0015 -0.412842 -1.87856 0 -1.24177e-11 -3.47784e-12 0 2.48474e-20 2.777e-26
7990 267 0.0015 -0.215808 -1.87844 0 -1.02387e-11 1.26603e-12 0 1.00459e-20 3.5641e-26
7989 267 0.0015 -0.213482 -1.87932 0 8.72511e-12 -1.40906e-12 0 1.00459e-20 2.90276e-26
10329 345 0.0015 -0.0659339 -1.87841 0 -4.67524e-12 1.5197e-11 0 0 1.1322e-25
1955 66 0.0015 0.0137179 -1.87827 0 -3.96368e-13 3.95753e-12 0 5.20104e-21 1.29159e-26
10201 341 0.0015 0.290108 -1.87875 0 -3.80522e-13 3.31298e-12 0 0 2.09274e-26
3533 118 0.0015 0.655738 -1.87902 0 -3.77738e-14 9.7531e-13 0 0 4.55674e-28
2647 89 0.0015 -0.593237 -1.87778 0 2.27657e-12 -1.50359e-12 0 0 5.16677e-27
10294 344 0.0015 -0.470773 -1.87669 0 -7.23004e-12 3.02508e-12 0 0 2.9224e-26
10293 344 0.0015 -0.467948 -1.87759 0 5.96654e-12 -4.22055e-12 0 0 2.65913e-26
6077 203 0.0015 -0.416475 -1.87683 0 7.81804e-13 5.06183e-12 0 7.45423e-20 6.45244e-28
6076 203 0.0015 -0.414658 -1.87769 0 6.83283e-12 -1.68861e-12 0 4.96948e-20 2.03283e-26
6034 202 0.0015 -0.327828 -1.87791 0 2.61186e-12 -4.2895e-12 0 0 3.3525e-26
7992 267 0.0015 -0.22046 -1.87668 0 -8.9756e-12 8.87135e-12 0 2.00918e-20 4.64652e-26
7991 267 0.0015 -0.218134 -1.87756 0 9.19578e-12 -5.57313e-12 0 2.00918e-20 4.02669e-26
10267 343 0.0015 0.42201 -1.87716 0 1.24905e-12 1.54117e-12 0 0 7.45448e-27
1479 50 0.0015 0.574675 -1.87722 0 -1.0867e-12 -2.35053e-12 0 0 6.20613e-27
3532 118 0.0015 0.658275 -1.8771 0 -2.36765e-12 -4.30586e-12 0 1.57149e-20 1.89487e-26
2648 89 0.0015 -0.596958 -1.87493 0 -1.08993e-12 1.10557e-12 0 0 1.6775e-27
10296 344 0.0015 -0.476421 -1.87487 0 -3.23923e-13 4.81449e-13 0 0 3.98031e-27
10295 344 0.0015 -0.473597 -1.87578 0 1.06581e-12 -8.1808e-15 0 0 5.87379e-27
6080 203 0.0015 -0.421925 -1.87425 0 -8.20524e-12 6.6556e-12 0 2.48474e-20 3.0802e-26
6079 203 0.0015 -0.420108 -1.87511 0 5.27494e-13 8.37739e-13 0 4.96948e-20 1.75806e-26
6078 203 0.0015 -0.418291 -1.87597 0 1.99439e-12 -6.14045e-12 0 7.45423e-20 8.68458e-27
7995 267 0.0015 -0.227437 -1.87404 0 -4.97989e-12 -1.4024e-11 0 0 8.53891e-27
7994 267 0.0015 -0.225111 -1.87492 0 6.07837e-12 8.04429e-12 0 1.00459e-20 3.92934e-27
7993 267 0.0015 -0.222785 -1.8758 0 2.33531e-12 -6.94357e-12 0 2.00918e-20 1.85008e-26
10330 345 0.0015 -0.0666107 -1.87531 0 2.7598e-12 -1.11245e-11 0 0 7.78243e-26
6003 201 0.0015 0.496967 -1.87498 0 -1.6609e-12 -4.29383e-12 0 0 2.45502e-26
1480 50 0.0015 0.576901 -1.87431 0 1.08461e-12 5.68255e-13 0 0 1.12822e-27
3531 118 0.0015 0.660812 -1.87519 0 8.77649e-12 9.11822e-12 0 1.57149e-20 7.3607e-26
2649 89 0.0015 -0.600679 -1.87207 0 2.70985e-12 -2.16435e-12 0 0 1.15484e-26
10299 344 0.0015 -0.484893 -1.87215 0 -4.57333e-12 -1.61527e-13 0 0 1.37508e-26
10298 344 0.0015 -0.482069 -1.87306 0 4.73093e-12 1.14448e-12 0 0 1.37135e-26
10297 344 0.0015 -0.479245 -1.87396 0 1.08792e-12 -2.1389e-12 0 0 2.57201e-27
6082 203 0.0015 -0.425558 -1.87252 0 -3.69184e-12 3.06787e-12 0 0 1.66739e-26
6081 203 0.0015 -0.423741 -1.87338 0 3.67952e-12 -5.02999e-12 0 0 2.20743e-26
7997 267 0.0015 -0.232089 -1.87228 0 2.16442e-12 -5.29303e-12 0 0 5.91336e-27
7996 267 0.0015 -0.229763 -1.87316 0 -5.37486e-13 1.34972e-11 0 0 9.61862e-27
10331 345 0.0015 -0.0672875 -1.8722 0 -8.28285e-14 1.79476e-12 0 1.57149e-20 5.30203e-27
1956 66 0.0015 0.0132378 -1.87349 0 1.11712e-12 -1.06929e-11 0 0 9.30631e-26
8045 269 0.0015 0.152704 -1.87369 0 7.88065e-13 -7.5747e-12 0 0 5.73748e-26
10202 341 0.0015 0.289307 -1.87202 0 7.28774e-13 -6.57258e-12 0 0 4.11478e-26
4531 152 0.0015 0.366216 -1.8733 0 6.69432e-14 -2.79904e-13 0 5.72705e-21 1.99443e-28
10268 343 0.0015 0.422731 -1.8732 0 1.02266e-12 9.11278e-12 0 1.24237e-20 7.96566e-26
3530 118 0.0015 0.66335 -1.87327 0 -5.77826e-12 -5.17426e-12 0 1.57149e-20 5.46943e-26
10301 344 0.0015 -0.490541 -1.87033 0 -8.38216e-12 5.63562e-12 0 0 3.98149e-26
10300 344 0.0015 -0.487717 -1.87124 0 3.85528e-12 -2.03321e-12 0 0 1.36687e-26
6084 203 0.0015 -0.429191 -1.8708 0 -1.46853e-11 6.1898e-12 0 0 7.71711e-26
6083 203 0.0015 -0.427374 -1.87166 0 1.3949e-11 -7.37071e-12 0 0 7.61961e-26
6035 202 0.0015 -0.332631 -1.87017 0 -1.82137e-12 3.02329e-12 0 2.74394e-21 2.44983e-26
7999 267 0.0015 -0.23674 -1.87052 0 7.34072e-12 -3.03136e-12 0 0 2.20292e-26
7998 267 0.0015 -0.234415 -1.8714 0 -5.49257e-12 1.47652e-12 0 0 1.44997e-26
1481 50 0.0015 0.579128 -1.8714 0 -2.96838e-12 -2.73249e-12 0 0 9.82232e-27
3529 118 0.0015 0.665887 -1.87136 0 -1.33267e-12 -2.18939e-12 0 0 4.46173e-27
2650 89 0.0015 -0.6044 -1.86922 0 -5.19497e-12 3.59461e-12 0 0 2.60683e-26
10303 344 0.0015 -0.49619 -1.86852 0 -1.0245e-11 2.32921e-12 0 0 4.51462e-26
10302 344 0.0015 -0.493366 -1.86943 0 9.56116e-12 -5.47023e-12 0 0 4.79448e-26
6087 203 0.0015 -0.434641 -1.86821 0 -1.32295e-11 1.5671e-11 0 0 1.03573e-25
6085 203 0.0015 -0.431008 -1.86994 0 8.9489e-12 1.48993e-12 0 0 1.92934e-26
6086 203 0.0015 -0.432824 -1.86908 0 8.71622e-13 -1.00508e-11 0 0 2.91195e-26
8001 267 0.0015 -0.241392 -1.86876 0 -1.44297e-12 -4.44987e-12 0 1.00459e-20 2.27921e-29
8000 267 0.0015 -0.239066 -1.86964 0 -2.48769e-12 3.89864e-12 0 1.00459e-20 8.63436e-27
8012 268 0.0015 -0.171924 -1.86923 0 -1.31789e-13 -3.33829e-13 0 0 6.07218e-27
10332 345 0.0015 -0.0679644 -1.86909 0 9.35067e-13 -6.19003e-12 0 3.14298e-20 4.17674e-26
1957 66 0.0015 0.0127576 -1.86871 0 -1.00841e-12 9.85278e-12 0 0 8.73999e-26
10269 343 0.0015 0.423451 -1.86924 0 -2.87428e-12 -1.83926e-11 0 1.24237e-20 1.95212e-25
1482 50 0.0015 0.581354 -1.86848 0 1.93847e-12 9.73878e-13 0 0 9.65895e-27
3528 118 0.0015 0.668424 -1.86944 0 7.04392e-13 2.15375e-12 0 0 4.57449e-27
2651 89 0.0015 -0.608121 -1.86636 0 1.24146e-12 -2.10361e-13 0 0 2.16048e-26
10305 344 0.0015 -0.501838 -1.8667 0 -9.18518e-13 -4.71124e-12 0 1.68424e-20 2.20952e-28
10304 344 0.0015 -0.499014 -1.86761 0 6.08415e-12 1.68704e-12 0 1.68424e-20 2.33917e-26
6089 203 0.0015 -0.438274 -1.86649 0 -9.00716e-12 -1.39897e-12 0 0 1.83234e-26
6088 203 0.0015 -0.436457 -1.86735 0 1.45362e-11 -8.90196e-12 0 0 9.1824e-26
8004 267 0.0015 -0.248369 -1.86612 0 5.05285e-12 6.47927e-12 0 1.00459e-20 2.28224e-27
8003 267 0.0015 -0.246044 -1.867 0 -3.61878e-12 -6.99236e-12 0 0 2.19341e-27
8002 267 0.0015 -0.243718 -1.86788 0 1.51226e-12 6.17227e-12 0 1.00459e-20 3.59007e-28
8046 269 0.0015 0.152008 -1.86695 0 -6.17111e-13 5.67119e-12 0 0 3.06524e-26
6004 201 0.0015 0.499982 -1.86721 0 1.42992e-12 3.79143e-12 0 0 1.92103e-26
3527 118 0.0015 0.670962 -1.86752 0 6.18078e-12 2.37122e-12 0 0 3.16892e-26
10307 344 0.0015 -0.507486 -1.86489 0 -5.7992e-12 -5.98543e-14 0 0 1.47041e-26
10306 344 0.0015 -0.504662 -1.8658 0 4.72003e-12 3.5787e-12 0 1.68424e-20 1.28435e-26
6090 203 0.0015 -0.440091 -1.86563 0 3.44371e-12 1.92408e-12 0 0 2.9201e-27
8006 267 0.0015 -0.253021 -1.86436 0 -5.97033e-12 1.17608e-11 0 2.00918e-20 3.28093e-26
8005 267 0.0015 -0.250695 -1.86524 0 1.17047e-12 -8.11895e-12 0 2.00918e-20 1.61656e-26
10333 345 0.0015 -0.0686412 -1.86599 0 -1.95796e-12 1.23345e-11 0 4.71447e-20 6.93163e-26
10203 341 0.0015 0.288506 -1.8653 0 -5.63339e-13 5.33826e-12 0 0 2.84367e-26
4532 152 0.0015 0.364868 -1.86469 0 2.73611e-15 -4.29981e-13 0 1.14541e-20 1.42829e-27
10270 343 0.0015 0.424172 -1.86529 0 1.92478e-12 1.46179e-11 0 2.48474e-20 1.3907e-25
1483 50 0.0015 0.58358 -1.86557 0 -4.20764e-12 -2.7895e-12 0 0 3.45471e-26
3526 118 0.0015 0.673499 -1.86561 0 -1.66088e-11 -8.52027e-12 0 0 1.67587e-25
2652 89 0.0015 -0.611842 -1.86351 0 8.91473e-12 -7.85351e-12 0 0 1.26392e-25
10310 344 0.0015 -0.515959 -1.86217 0 -5.64446e-12 4.35447e-13 0 0 1.37938e-26
10309 344 0.0015 -0.513134 -1.86307 0 6.24889e-12 1.74902e-12 0 0 1.35157e-26
10308 344 0.0015 -0.51031 -1.86398 0 -8.99262e-13 -2.19618e-12 0 0 4.66938e-27
6036 202 0.0015 -0.337434 -1.86244 0 -7.9168e-13 1.24852e-12 0 2.74394e-21 9.90685e-27
8008 267 0.0015 -0.257673 -1.8626 0 1.0389e-12 1.54191e-11 0 0 6.94231e-27
8007 267 0.0015 -0.255347 -1.86348 0 2.34044e-12 -1.4318e-11 0 1.00459e-20 2.06803e-26
10334 345 0.0015 -0.0693181 -1.86288 0 6.13206e-13 -7.61882e-12 0 4.71447e-20 3.12522e-26
1958 66 0.0015 0.0122775 -1.86393 0 -2.22867e-13 1.55035e-12 0 0 2.35421e-26
1484 50 0.0015 0.585807 -1.86266 0 6.93305e-12 6.57751e-12 0 0 4.74722e-26
3525 118 0.0015 0.676036 -1.86369 0 1.66088e-11 8.52027e-12 0 0 1.67587e-25
2653 89 0.0015 -0.615563 -1.86065 0 -1.46628e-11 1.22114e-11 0 5.32605e-21 2.36817e-25
10312 344 0.0015 -0.521607 -1.86035 0 3.66747e-12 2.08065e-12 0 0 3.446e-27
10311 344 0.0015 -0.518783 -1.86126 0 -2.8943e-13 -1.57995e-12 0 0 5.133e-27
8010 267 0.0015 -0.262324 -1.86085 0 5.48111e-14 3.91746e-12 0 0 1.23016e-27
8009 267 0.0015 -0.259998 -1.86172 0 -6.7366e-13 -1.17809e-11 0 0 4.58199e-27
8047 269 0.0015 0.151313 -1.86021 0 -2.86172e-14 7.3736e-13 0 0 3.73355e-26
10271 343 0.0015 0.424893 -1.86133 0 -2.04041e-13 -5.71187e-12 0 2.48474e-20 2.43283e-26
3524 118 0.0015 0.678573 -1.86178 0 -6.18078e-12 -2.37122e-12 0 0 3.16892e-26
10314 344 0.0015 -0.527255 -1.85854 0 -3.69872e-12 3.64185e-12 0 0 9.04123e-27
10313 344 0.0015 -0.524431 -1.85944 0 -2.27224e-13 -3.26444e-12 0 0 4.40985e-27
10335 345 0.0015 -0.0699949 -1.85978 0 4.11358e-13 2.5597e-14 0 3.14298e-20 6.98325e-27
1959 66 0.0015 0.0117974 -1.85915 0 6.96621e-13 -5.72701e-12 0 0 2.37499e-26
4771 160 0.0015 0.0785585 -1.85825 0 9.11858e-16 -6.93383e-15 0 0 1.237e-31
10204 341 0.0015 0.287705 -1.85857 0 3.31893e-14 -7.56464e-13 0 0 1.15673e-26
6005 201 0.0015 0.502997 -1.85945 0 -1.47739e-12 -3.86164e-12 0 5.99535e-21 2.00822e-26
1485 50 0.0015 0.588033 -1.85975 0 5.76489e-13 1.85702e-12 0 0 4.48935e-26
3523 118 0.0015 0.681111 -1.85986 0 -7.04392e-13 -2.15375e-12 0 0 4.57449e-27
2654 89 0.0015 -0.619284 -1.8578 0 8.96816e-12 -7.04951e-12 0 5.32605e-21 1.21957e-25
10316 344 0.0015 -0.532903 -1.85672 0 6.22144e-12 -1.61116e-12 0 0 1.79881e-26
10315 344 0.0015 -0.530079 -1.85763 0 -1.70061e-13 -1.30695e-12 0 0 1.06304e-26
8013 268 0.0015 -0.167482 -1.85688 0 5.48054e-13 1.50847e-12 0 1.90242e-21 5.23502e-27
10336 345 0.0015 -0.0706718 -1.85667 0 -9.68098e-13 6.8597e-12 0 1.57149e-20 2.47101e-26
4533 152 0.0015 0.36352 -1.85607 0 -2.21735e-13 1.76501e-12 0 1.71811e-20 3.98219e-27
10272 343 0.0015 0.425614 -1.85738 0 -3.71809e-13 7.60554e-13 0 2.48474e-20 1.64133e-27
1486 50 0.0015 0.59026 -1.85684 0 -5.76489e-13 -1.85702e-12 0 0 4.48935e-26
3522 118 0.0015 0.683648 -1.85795 0 1.33267e-12 2.18939e-12 0 0 4.46173e-27
3521 118 0.0015 0.686185 -1.85603 0 5.77826e-12 5.17426e-12 0 1.57149e-20 5.46943e-26
2655 89 0.0015 -0.623004 -1.85494 0 -2.84428e-12 1.23374e-12 0 5.32605e-21 6.35355e-27
10318 344 0.0015 -0.538552 -1.85491 0 -4.35263e-12 1.05974e-13 0 0 1.74992e-26
10317 344 0.0015 -0.535727 -1.85581 0 -4.00849e-12 1.94534e-12 0 0 1.33111e-26
6037 202 0.0015 -0.342237 -1.85471 0 1.35686e-12 -2.2289e-12 0 2.74394e-21 1.05715e-26
1960 66 0.0015 0.0113172 -1.85437 0 3.05414e-13 -3.8938e-12 0 0 5.44252e-26
3520 118 0.0015 0.688722 -1.85412 0 -8.77649e-12 -9.11822e-12 0 1.57149e-20 7.3607e-26
2656 89 0.0015 -0.626725 -1.85209 0 1.41043e-12 3.23129e-13 0 0 1.5618e-27
10320 344 0.0015 -0.5442 -1.85309 0 -4.7447e-12 1.28292e-12 0 0 1.98621e-26
10319 344 0.0015 -0.541376 -1.854 0 9.31395e-12 -2.06624e-12 0 0 3.72204e-26
10337 345 0.0015 -0.0713486 -1.85356 0 2.20922e-13 -4.28241e-12 0 1.57149e-20 2.14907e-26
8048 269 0.0015 0.150617 -1.85348 0 9.20924e-13 -9.28498e-12 0 0 8.70603e-26
10273 343 0.0015 0.426335 -1.85342 0 1.54026e-12 6.54887e-12 0 1.24237e-20 4.41808e-26
1487 50 0.0015 0.592486 -1.85392 0 -6.93305e-12 -6.57751e-12 0 0 4.74722e-26
3519 118 0.0015 0.69126 -1.8522 0 2.36765e-12 4.30586e-12 0 1.57149e-20 1.89487e-26
10338 345 0.0015 -0.0720254 -1.85046 0 -1.93624e-14 1.79413e-12 0 1.57149e-20 5.53229e-27
10205 341 0.0015 0.286904 -1.85184 0 4.90092e-13 -3.51297e-12 0 0 1.25578e-26
6006 201 0.0015 0.506013 -1.85168 0 1.78924e-12 4.4683e-12 0 1.19907e-20 2.68441e-26
1488 50 0.0015 0.594712 -1.85101 0 4.20764e-12 2.7895e-12 0 0 3.45471e-26
3518 118 0.0015 0.693797 -1.85028 0 3.77738e-14 -9.7531e-13 0 0 4.55674e-28
2657 89 0.0015 -0.630446 -1.84923 0 4.38699e-13 -1.20074e-12 0 0 1.13218e-27
1961 66 0.0015 0.0108371 -1.84959 0 -1.13325e-12 1.15649e-11 0 5.20104e-21 9.01975e-26
4772 160 0.0015 0.0782973 -1.84905 0 8.25715e-15 -2.58289e-13 0 0 1.80125e-28
10274 343 0.0015 0.427056 -1.84946 0 -2.72046e-12 -1.31115e-11 0 0 1.00484e-25
1489 50 0.0015 0.596939 -1.8481 0 -1.93847e-12 -9.73878e-13 0 0 9.65895e-27
3517 118 0.0015 0.696334 -1.84837 0 -1.20821e-12 -2.85717e-12 0 0 1.05804e-26
2658 89 0.0015 -0.634167 -1.84638 0 -1.88672e-12 1.44677e-12 0 0 3.87308e-27
6038 202 0.0015 -0.34704 -1.84697 0 8.49718e-13 -1.29221e-12 0 0 1.37251e-26
10339 345 0.0015 -0.0727023 -1.84735 0 7.1275e-13 -2.67829e-12 0 1.57149e-20 5.26064e-27
8049 269 0.0015 0.149922 -1.84674 0 -7.20452e-13 7.13835e-12 0 3.6872e-21 6.74384e-26
6541 219 0.0015 0.213251 -1.84656 0 -1.38474e-13 1.72144e-12 0 0 5.8895e-27
4534 152 0.0015 0.362172 -1.84745 0 1.05471e-13 -6.53023e-13 0 1.71811e-20 3.14977e-27
3516 118 0.0015 0.698871 -1.84645 0 7.26886e-12 9.11631e-12 0 0 6.53268e-26
8014 268 0.0015 -0.163039 -1.84452 0 -6.54183e-13 -1.85859e-12 0 1.90242e-21 8.58438e-27
10340 345 0.0015 -0.0733791 -1.84424 0 -6.95265e-13 2.026e-13 0 0 1.10537e-28
1962 66 0.0015 0.010357 -1.84481 0 6.09754e-13 -6.48535e-12 0 5.20104e-21 4.28944e-26
10206 341 0.0015 0.286103 -1.84511 0 -1.56656e-13 4.64516e-13 0 0 1.48525e-26
10275 343 0.0015 0.427777 -1.84551 0 2.07904e-12 1.06248e-11 0 0 7.19149e-26
1490 50 0.0015 0.599165 -1.84519 0 2.96838e-12 2.73249e-12 0 0 9.82232e-27
3515 118 0.0015 0.701409 -1.84454 0 -1.10854e-11 -1.11584e-11 0 0 1.07075e-25
2659 89 0.0015 -0.637888 -1.84352 0 4.82169e-13 -3.00934e-13 0 0 3.81493e-27
6007 201 0.0015 0.509028 -1.84391 0 -7.28399e-13 -1.55558e-12 0 1.7986e-20 1.57797e-26
1491 50 0.0015 0.601391 -1.84228 0 -1.08461e-12 -5.68255e-13 0 0 1.12822e-27
3514 118 0.0015 0.703946 -1.84262 0 8.40905e-12 8.83386e-12 0 0 6.87433e-26
2660 89 0.0015 -0.641609 -1.84066 0 3.99758e-12 -2.40356e-12 0 0 1.92739e-26
10341 345 0.0015 -0.074056 -1.84114 0 2.08284e-12 -4.76394e-12 0 1.57149e-20 2.30223e-26
1963 66 0.0015 0.00987681 -1.84004 0 -2.99674e-13 4.02622e-12 0 5.20104e-21 1.4092e-26
10276 343 0.0015 0.428498 -1.84155 0 -2.07904e-12 -1.06248e-11 0 0 7.19149e-26
3513 118 0.0015 0.706483 -1.84071 0 -2.71799e-12 -5.34739e-12 0 0 1.77757e-26
6039 202 0.0015 -0.351842 -1.83924 0 -1.13936e-12 1.78236e-12 0 0 1.2582e-26
10342 345 0.0015 -0.0747328 -1.83803 0 -8.22977e-13 -1.77777e-12 0 1.57149e-20 6.22827e-26
4773 160 0.0015 0.0780361 -1.83985 0 -7.37345e-14 2.41818e-12 0 0 1.20376e-26
8050 269 0.0015 0.149226 -1.84 0 2.43885e-13 -2.56877e-12 0 3.6872e-21 6.27391e-27
6542 219 0.0015 0.21269 -1.83947 0 1.94009e-13 -2.51335e-12 0 3.51396e-21 7.13385e-27
10207 341 0.0015 0.285302 -1.83839 0 -7.162e-13 6.79538e-12 0 0 5.45998e-26
4535 152 0.0015 0.360823 -1.83883 0 -2.00777e-13 1.13047e-12 0 1.14541e-20 6.23612e-27
1492 50 0.0015 0.603618 -1.83936 0 1.0867e-12 2.35053e-12 0 0 6.20613e-27
3512 118 0.0015 0.70902 -1.83879 0 6.18401e-13 3.04257e-12 0 0 2.42542e-27
2661 89 0.0015 -0.64533 -1.83781 0 -4.89522e-12 2.85639e-12 0 0 2.28453e-26
10277 343 0.0015 0.429219 -1.8376 0 2.72046e-12 1.31115e-11 0 0 1.00484e-25
6008 201 0.0015 0.512043 -1.83614 0 -5.04435e-13 -1.54361e-12 0 1.19907e-20 3.04809e-27
1493 50 0.0015 0.605844 -1.83645 0 -6.27292e-14 -2.84883e-12 0 6.81478e-21 6.23091e-27
3511 118 0.0015 0.711558 -1.83688 0 -6.71987e-13 -1.27404e-12 0 0 1.50156e-27
2662 89 0.0015 -0.649051 -1.83495 0 1.24545e-12 -6.81156e-13 0 0 4.9102e-27
10343 345 0.0015 -0.0754097 -1.83493 0 -2.23186e-12 1.41783e-11 0 1.57149e-20 9.10871e-26
1964 66 0.0015 0.00939668 -1.83526 0 4.74688e-13 -5.89894e-12 0 0 2.34209e-26
2663 89 0.0015 -0.652772 -1.8321 0 -1.28762e-14 2.74104e-13 0 5.32605e-21 8.58777e-28
10171 340 0.0015 -0.234195 -1.83312 0 -1.18837e-12 1.76133e-12 0 0 9.79936e-27
8015 268 0.0015 -0.158597 -1.83216 0 7.11878e-13 2.04014e-12 0 1.90242e-21 9.45395e-27
8051 269 0.0015 0.14853 -1.83326 0 -1.33929e-13 1.64184e-12 0 3.6872e-21 3.20499e-27
6543 219 0.0015 0.212128 -1.83239 0 -1.63127e-13 2.25727e-12 0 7.02791e-21 5.50719e-27
10278 343 0.0015 0.429939 -1.83364 0 -1.54026e-12 -6.54887e-12 0 1.24237e-20 4.41808e-26
1494 50 0.0015 0.60807 -1.83354 0 -2.8218e-12 -9.77592e-13 0 1.36296e-20 5.52592e-27
6040 202 0.0015 -0.356645 -1.83151 0 -1.36885e-12 2.1397e-12 0 0 1.49319e-26
10344 345 0.0015 -0.0760865 -1.83182 0 1.52982e-12 -7.43934e-12 0 0 5.18305e-26
1965 66 0.0015 0.00891654 -1.83048 0 -3.4445e-13 4.16091e-12 0 0 1.29774e-26
4774 160 0.0015 0.0777749 -1.83066 0 5.82867e-14 -1.91463e-12 0 0 1.20029e-26
10208 341 0.0015 0.284501 -1.83166 0 1.06637e-12 -9.4618e-12 0 3.6872e-21 8.57391e-26
4536 152 0.0015 0.359475 -1.83021 0 6.23166e-13 -4.00115e-12 0 1.14541e-20 2.09483e-26
1495 50 0.0015 0.610297 -1.83063 0 2.97152e-12 2.46727e-12 0 1.36296e-20 7.61251e-27
2664 89 0.0015 -0.656493 -1.82924 0 1.3813e-12 -1.12258e-12 0 5.32605e-21 2.20464e-27
10345 345 0.0015 -0.0767633 -1.82871 0 -8.97246e-13 1.91951e-12 0 0 4.02097e-27
10279 343 0.0015 0.43066 -1.82968 0 3.71809e-13 -7.60554e-13 0 2.48474e-20 1.64133e-27
6009 201 0.0015 0.515058 -1.82837 0 -4.80246e-13 -1.18746e-12 0 5.99535e-21 1.20866e-26
2665 89 0.0015 -0.660213 -1.82639 0 -6.99928e-13 -5.06333e-14 0 5.32605e-21 2.11186e-27
10172 340 0.0015 -0.238704 -1.82673 0 1.75221e-12 -2.69141e-12 0 6.39056e-21 1.23558e-26
8052 269 0.0015 0.147835 -1.82652 0 -1.1882e-13 8.10995e-13 0 0 3.13976e-27
1496 50 0.0015 0.612523 -1.82772 0 1.63664e-12 3.06347e-12 0 6.81478e-21 2.62533e-26
10346 345 0.0015 -0.0774402 -1.82561 0 1.36198e-12 -3.59258e-12 0 0 6.47222e-27
1966 66 0.0015 0.0084364 -1.8257 0 -3.13436e-15 -1.03059e-13 0 0 4.68489e-27
6544 219 0.0015 0.211567 -1.8253 0 3.65851e-13 -4.72752e-12 0 7.02791e-21 2.54084e-26
10209 341 0.0015 0.2837 -1.82493 0 -6.22248e-13 5.55856e-12 0 7.37441e-21 3.93697e-26
10280 343 0.0015 0.431381 -1.82573 0 2.04041e-13 5.71187e-12 0 2.48474e-20 2.43283e-26
1497 50 0.0015 0.614749 -1.8248 0 -4.77268e-12 -7.07168e-12 0 0 3.76866e-26
2666 89 0.0015 -0.663934 -1.82353 0 -4.32398e-13 1.25023e-12 0 0 7.99915e-28
6041 202 0.0015 -0.361448 -1.82377 0 2.78656e-12 -4.28115e-12 0 0 3.30577e-26
10347 345 0.0015 -0.078117 -1.8225 0 -1.44619e-12 4.13399e-12 0 0 8.79675e-27
2667 89 0.0015 -0.667655 -1.82068 0 2.24788e-12 -2.36308e-12 0 0 9.94845e-27
10173 340 0.0015 -0.243212 -1.82034 0 -6.59462e-13 1.11484e-12 0 6.39056e-21 2.6487e-27
1967 66 0.0015 0.00795626 -1.82092 0 3.59161e-13 -4.02842e-12 0 0 1.24073e-26
4775 160 0.0015 0.0775136 -1.82146 0 1.25359e-13 -4.43248e-12 0 0 4.51418e-26
4537 152 0.0015 0.358127 -1.82159 0 -5.15782e-13 3.33049e-12 0 1.14541e-20 1.69562e-26
10281 343 0.0015 0.432102 -1.82177 0 -1.92478e-12 -1.46179e-11 0 2.48474e-20 1.3907e-25
6010 201 0.0015 0.518074 -1.8206 0 2.36064e-12 5.97309e-12 0 0 5.32146e-26
1498 50 0.0015 0.616976 -1.82189 0 2.51002e-12 2.60217e-12 0 0 1.35514e-26
8016 268 0.0015 -0.154154 -1.81981 0 2.46905e-13 6.67191e-13 0 0 9.38544e-27
10348 345 0.0015 -0.0787939 -1.81939 0 1.80878e-12 -4.28857e-12 0 1.57149e-20 9.51488e-27
8053 269 0.0015 0.147139 -1.81978 0 5.57556e-14 -1.65568e-13 0 0 4.92448e-27
6545 219 0.0015 0.211005 -1.81821 0 -4.90745e-14 7.54525e-13 0 3.51396e-21 3.36489e-26
10210 341 0.0015 0.282899 -1.8182 0 1.53715e-13 -1.60508e-12 0 7.37441e-21 2.94913e-27
1499 50 0.0015 0.619202 -1.81898 0 -2.4667e-12 -1.46221e-12 0 0 7.51307e-27
2668 89 0.0015 -0.671376 -1.81782 0 -4.10928e-12 3.34527e-12 0 0 1.82868e-26
6042 202 0.0015 -0.366251 -1.81604 0 -1.50446e-12 2.19659e-12 0 0 1.81589e-26
10349 345 0.0015 -0.0794707 -1.81629 0 -6.12607e-13 -1.76726e-12 0 1.57149e-20 1.39412e-26
1968 66 0.0015 0.00747613 -1.81614 0 -6.16545e-13 6.73312e-12 0 5.20104e-21 3.14833e-26
10282 343 0.0015 0.432823 -1.81781 0 2.87428e-12 1.83926e-11 0 1.24237e-20 1.95212e-25
1500 50 0.0015 0.621428 -1.81607 0 2.0386e-12 1.85999e-12 0 0 7.50987e-27
2669 89 0.0015 -0.675097 -1.81497 0 2.41335e-12 -1.84835e-12 0 0 8.94651e-27
5941 199 0.0015 0.740778 -1.81551 0 4.29987e-13 1.63482e-12 0 0 7.62243e-27
2670 89 0.0015 -0.678818 -1.81211 0 -3.69909e-13 2.73628e-13 0 0 2.75722e-28
10174 340 0.0015 -0.24772 -1.81396 0 -3.60751e-13 4.54991e-13 0 6.39056e-21 1.4333e-27
10350 345 0.0015 -0.0801475 -1.81318 0 -3.54085e-13 3.49671e-12 0 1.57149e-20 1.07679e-26
4776 160 0.0015 0.0772524 -1.81226 0 -2.61818e-13 9.27203e-12 0 0 1.10951e-25
8054 269 0.0015 0.146443 -1.81304 0 2.93745e-13 -3.3358e-12 0 0 1.19899e-26
4538 152 0.0015 0.356779 -1.81297 0 -1.37983e-13 1.10171e-12 0 1.14541e-20 1.13763e-26
10283 343 0.0015 0.433544 -1.81386 0 -1.02266e-12 -9.11278e-12 0 1.24237e-20 7.96566e-26
6011 201 0.0015 0.521089 -1.81283 0 -3.3022e-12 -8.18067e-12 0 0 9.01182e-26
1969 66 0.0015 0.00699599 -1.81136 0 6.87468e-13 -7.18207e-12 0 1.04021e-20 3.51135e-26
6546 219 0.0015 0.210443 -1.81113 0 -3.69357e-13 4.40603e-12 0 0 1.96703e-26
10211 341 0.0015 0.282098 -1.81148 0 1.26467e-13 -7.00673e-13 0 7.37441e-21 2.85646e-27
6043 202 0.0015 -0.371054 -1.8083 0 -1.00194e-12 1.74718e-12 0 0 1.00451e-26
10284 343 0.0015 0.434265 -1.8099 0 -1.24905e-12 -1.54117e-12 0 0 7.45448e-27
10175 340 0.0015 -0.252228 -1.80757 0 8.93407e-13 -1.23303e-12 0 0 2.51969e-27
8017 268 0.0015 -0.149712 -1.80745 0 -7.0417e-13 -1.97114e-12 0 0 9.07803e-27
1970 66 0.0015 0.00651585 -1.80658 0 -6.11553e-13 6.23247e-12 0 1.56031e-20 2.61841e-26
8055 269 0.0015 0.145748 -1.8063 0 -2.63629e-13 3.0792e-12 0 0 1.10893e-26
5942 199 0.0015 0.743061 -1.80618 0 9.55662e-14 7.02143e-13 0 0 2.29266e-26
6547 219 0.0015 0.209882 -1.80404 0 -5.69205e-14 8.42692e-13 0 0 2.20968e-26
10212 341 0.0015 0.281297 -1.80475 0 -1.45666e-13 7.27736e-13 0 3.6872e-21 2.80978e-27
4539 152 0.0015 0.35543 -1.80435 0 2.46089e-13 -1.84779e-12 0 5.72705e-21 9.56316e-27
10285 343 0.0015 0.434986 -1.80595 0 2.04894e-12 5.85475e-12 0 0 2.17393e-26
6012 201 0.0015 0.524104 -1.80507 0 3.17421e-12 7.7876e-12 0 0 8.22987e-26