ITEM: TIMESTEP
111800
ITEM: NUMBER OF ATOMS
10500
ITEM: BOX BOUNDS pp pp pp
-1.0249999999999999e+00 1.0249999999999999e+00
-2.0000000000000000e+00 2.0000000000000000e+00
-5.0000000000000003e-02 5.0000000000000003e-02
ITEM: ATOMS id type radius x y z fx fy fz c_bendingE c_stretchingE
10321 345 0.0015 -0.0605191 -1.90326 0 -2.42109e-13 2.75348e-12 0 0 6.63905e-27
6031 202 0.0015 -0.31342 -1.90111 0 1.50465e-12 -2.42216e-12 0 0 2.05614e-26
10322 345 0.0015 -0.061196 -1.90016 0 1.51772e-12 -1.0602e-11 0 0 6.23154e-26
8041 269 0.0015 0.155487 -1.90065 0 -2.5594e-13 2.56822e-12 0 0 1.25356e-26
10261 343 0.0015 0.417684 -1.90089 0 3.89114e-13 1.84504e-12 0 1.24237e-20 3.96872e-27
1471 50 0.0015 0.556864 -1.90052 0 6.60751e-13 1.15191e-12 0 0 1.76453e-27
10323 345 0.0015 -0.0618728 -1.89705 0 -2.32235e-12 1.3491e-11 0 0 8.47311e-26
1951 66 0.0015 0.0156385 -1.89738 0 5.29149e-13 -5.1311e-12 0 0 3.54987e-26
10262 343 0.0015 0.418405 -1.89694 0 -2.42502e-12 -1.0908e-11 0 1.24237e-20 1.00189e-25
1472 50 0.0015 0.559091 -1.8976 0 3.47713e-12 3.20459e-12 0 0 3.81045e-26
2641 89 0.0015 -0.570912 -1.89491 0 3.38203e-12 -2.68872e-12 0 0 2.43129e-26
1473 50 0.0015 0.561317 -1.89469 0 -6.01119e-12 -5.08883e-12 0 6.81478e-21 3.93507e-26
2642 89 0.0015 -0.574633 -1.89206 0 -5.96695e-12 4.58251e-12 0 0 3.7684e-26
6032 202 0.0015 -0.318223 -1.89337 0 -2.33941e-12 3.74788e-12 0 2.74394e-21 2.67678e-26
10324 345 0.0015 -0.0625496 -1.89394 0 1.97301e-13 -3.33278e-12 0 0 3.43017e-26
1952 66 0.0015 0.0151583 -1.8926 0 3.55365e-13 -3.66271e-12 0 5.20104e-21 1.39713e-25
8042 269 0.0015 0.154791 -1.89391 0 3.45571e-13 -3.66279e-12 0 0 1.48043e-26
10263 343 0.0015 0.419126 -1.89298 0 3.86843e-12 1.62066e-11 0 1.24237e-20 1.56671e-25
3540 118 0.0015 0.637977 -1.89243 0 3.10148e-12 1.67562e-12 0 1.57149e-20 1.07248e-26
6061 203 0.0015 -0.387409 -1.89062 0 3.87406e-12 5.00273e-12 0 2.48474e-20 1.02657e-27
10325 345 0.0015 -0.0632265 -1.89084 0 1.58279e-12 -3.65255e-12 0 0 7.15067e-27
10231 342 0.0015 0.215 -1.89 0 -1.8175e-12 0 0 0 6.32662e-28
10232 342 0.0015 0.21569 -1.89 0 6.01314e-12 0 0 0 4.0046e-27
10233 342 0.0015 0.216379 -1.89 0 -9.45391e-12 0 0 0 8.66876e-27
10234 342 0.0015 0.217069 -1.89 0 8.91104e-12 0 0 0 7.85197e-27
10235 342 0.0015 0.217759 -1.89 0 -5.72337e-12 0 0 0 3.37665e-27
10236 342 0.0015 0.218448 -1.89 0 5.83114e-12 0 0 0 3.53096e-27
10237 342 0.0015 0.219138 -1.89 0 -8.47528e-12 0 0 0 6.96823e-27
10238 342 0.0015 0.219828 -1.89 0 1.05041e-11 0 0 0 1.06791e-26
10239 342 0.0015 0.220517 -1.89 0 -8.58505e-12 0 0 0 7.91715e-27
10240 342 0.0015 0.221207 -1.89 0 7.02777e-12 0 0 0 4.92723e-27
10241 342 0.0015 0.221897 -1.89 0 -1.28945e-11 0 0 0 1.78075e-26
10242 342 0.0015 0.222586 -1.89 0 1.73132e-11 0 0 0 2.87129e-26
10243 342 0.0015 0.223276 -1.89 0 -1.48151e-11 0 0 0 2.1614e-26
10244 342 0.0015 0.223966 -1.89 0 1.22429e-11 0 0 0 1.43574e-26
10245 342 0.0015 0.224655 -1.89 0 -1.32929e-11 0 0 0 1.70494e-26
10246 342 0.0015 0.225345 -1.89 0 1.32929e-11 0 0 0 1.70494e-26
10247 342 0.0015 0.226034 -1.89 0 -1.22429e-11 0 0 0 1.43574e-26
10248 342 0.0015 0.226724 -1.89 0 1.48151e-11 0 0 0 2.1614e-26
10249 342 0.0015 0.227414 -1.89 0 -1.73132e-11 0 0 0 2.87129e-26
10250 342 0.0015 0.228103 -1.89 0 1.28945e-11 0 0 0 1.78075e-26
10251 342 0.0015 0.228793 -1.89 0 -7.02777e-12 0 0 0 4.92723e-27
10252 342 0.0015 0.229483 -1.89 0 8.58505e-12 0 0 0 7.91715e-27
10253 342 0.0015 0.230172 -1.89 0 -1.05041e-11 0 0 0 1.06791e-26
10254 342 0.0015 0.230862 -1.89 0 8.47528e-12 0 0 0 6.96823e-27
10255 342 0.0015 0.231552 -1.89 0 -5.83114e-12 0 0 0 3.53096e-27
10256 342 0.0015 0.232241 -1.89 0 5.72337e-12 0 0 0 3.37665e-27
10257 342 0.0015 0.232931 -1.89 0 -8.91104e-12 0 0 0 7.85197e-27
10258 342 0.0015 0.233621 -1.89 0 9.45391e-12 0 0 0 8.66876e-27
10259 342 0.0015 0.23431 -1.89 0 -6.01314e-12 0 0 0 4.0046e-27
10260 342 0.0015 0.235 -1.89 0 1.8175e-12 0 0 0 6.32662e-28
6001 201 0.0015 0.490936 -1.89052 0 1.23462e-12 3.2631e-12 0 0 2.81735e-26
1474 50 0.0015 0.563543 -1.89178 0 2.98088e-13 -2.89401e-12 0 1.36296e-20 1.80059e-26
3539 118 0.0015 0.640514 -1.89051 0 -1.0999e-11 -6.19589e-12 0 3.14298e-20 8.26793e-26
2643 89 0.0015 -0.578354 -1.8892 0 4.70978e-12 -3.22026e-12 0 5.32605e-21 2.14698e-26
6063 203 0.0015 -0.391043 -1.8889 0 1.02532e-11 1.25646e-11 0 4.96948e-20 6.10461e-27
6064 203 0.0015 -0.392859 -1.88804 0 -6.6085e-12 -5.11113e-12 0 2.48474e-20 5.75464e-27
6062 203 0.0015 -0.389226 -1.88976 0 -1.12896e-11 -1.30627e-11 0 4.96948e-20 6.90751e-27
10264 343 0.0015 0.419847 -1.88903 0 -2.7419e-12 -1.14251e-11 0 1.24237e-20 8.1832e-26
1475 50 0.0015 0.56577 -1.88887 0 -5.18956e-13 1.71875e-12 0 1.36296e-20 2.2906e-26
3538 118 0.0015 0.643052 -1.8886 0 9.31992e-12 4.44933e-12 0 4.71447e-20 7.30084e-26
2644 89 0.0015 -0.582074 -1.88635 0 -3.82449e-12 2.41257e-12 0 2.13042e-20 1.33601e-26
6066 203 0.0015 -0.396492 -1.88631 0 -1.81938e-12 -8.11315e-12 0 2.48474e-20 2.51805e-27
6065 203 0.0015 -0.394676 -1.88717 0 6.0096e-12 4.69071e-12 0 0 5.57228e-27
7981 267 0.0015 -0.194876 -1.88635 0 2.01874e-12 -2.04859e-12 0 0 4.71562e-27
10326 345 0.0015 -0.0639033 -1.88773 0 -1.34913e-12 3.258e-12 0 0 5.44423e-27
1953 66 0.0015 0.0146782 -1.88782 0 -1.48417e-12 1.45639e-11 0 5.20104e-21 1.49112e-25
8043 269 0.0015 0.154095 -1.88717 0 -1.35597e-15 3.27567e-13 0 3.6872e-21 3.39032e-27
3537 118 0.0015 0.645589 -1.88668 0 2.76102e-12 4.25079e-12 0 3.14298e-20 3.13505e-26
6068 203 0.0015 -0.400126 -1.88459 0 -1.01594e-11 1.37922e-11 0 4.96948e-20 6.38361e-26
6067 203 0.0015 -0.398309 -1.88545 0 4.67137e-12 -1.76243e-12 0 2.48474e-20 3.04869e-26
6033 202 0.0015 -0.323025 -1.88564 0 -3.56848e-13 6.63815e-13 0 2.74394e-21 1.98034e-26
7983 267 0.0015 -0.199527 -1.8846 0 1.40615e-12 2.83927e-13 0 0 5.66619e-27
7982 267 0.0015 -0.197202 -1.88548 0 -4.77476e-13 2.37919e-12 0 0 5.92762e-27
10327 345 0.0015 -0.0645802 -1.88463 0 3.02166e-13 -1.04712e-12 0 1.57149e-20 4.27971e-27
10265 343 0.0015 0.420568 -1.88507 0 1.54807e-12 8.99283e-12 0 1.24237e-20 4.65801e-26
1476 50 0.0015 0.567996 -1.88596 0 5.67994e-12 6.20554e-12 0 1.36296e-20 3.97539e-26
3536 118 0.0015 0.648126 -1.88476 0 -6.59226e-12 -6.99581e-12 0 1.57149e-20 4.1864e-26
2645 89 0.0015 -0.585795 -1.88349 0 5.91898e-12 -4.0326e-12 0 2.66302e-20 3.96966e-26
6071 203 0.0015 -0.405575 -1.882 0 1.23558e-11 -1.30729e-11 0 0 8.90278e-26
6070 203 0.0015 -0.403759 -1.88287 0 -1.10363e-12 1.52832e-11 0 2.48474e-20 1.85594e-26
6069 203 0.0015 -0.401942 -1.88373 0 4.29409e-12 -1.48453e-11 0 2.48474e-20 3.86133e-26
7985 267 0.0015 -0.204179 -1.88284 0 -2.01611e-12 3.91605e-12 0 2.00918e-20 7.05449e-27
7984 267 0.0015 -0.201853 -1.88372 0 -3.71842e-12 -2.86844e-12 0 1.00459e-20 4.4582e-27
1954 66 0.0015 0.0141981 -1.88304 0 1.88533e-13 -1.88882e-12 0 5.20104e-21 6.52198e-26
6002 201 0.0015 0.493952 -1.88275 0 -1.92966e-12 -5.14072e-12 0 0 3.745e-26
1477 50 0.0015 0.570222 -1.88304 0 -3.04764e-12 -2.97671e-12 0 1.36296e-20 3.37723e-26
3535 118 0.0015 0.650663 -1.88285 0 2.64357e-12 2.38106e-12 0 0 1.15724e-26
2646 89 0.0015 -0.589516 -1.88064 0 -7.74992e-12 5.07745e-12 0 2.13042e-20 5.63167e-26
6073 203 0.0015 -0.409209 -1.88028 0 -1.70495e-12 2.33571e-12 0 0 1.47606e-26
6072 203 0.0015 -0.407392 -1.88114 0 -1.37679e-11 2.67957e-12 0 0 7.58014e-26
7988 267 0.0015 -0.211156 -1.8802 0 -6.39269e-12 7.38244e-14 0 0 1.46487e-26
7987 267 0.0015 -0.208831 -1.88108 0 7.45353e-12 -1.99457e-12 0 1.00459e-20 2.06034e-26
7986 267 0.0015 -0.206505 -1.88196 0 -1.91728e-13 1.13454e-13 0 2.00918e-20 1.51027e-26
8011 268 0.0015 -0.176367 -1.88159 0 3.58559e-13 1.01028e-12 0 0 4.19165e-27
10328 345 0.0015 -0.065257 -1.88152 0 1.54689e-12 -6.01419e-12 0 1.57149e-20 2.5459e-26
8044 269 0.0015 0.1534 -1.88043 0 -7.29123e-13 7.16665e-12 0 3.6872e-21 7.89675e-26
10266 343 0.0015 0.421289 -1.88111 0 -9.01325e-13 -7.9761e-12 0 1.24237e-20 3.70618e-26
1478 50 0.0015 0.572449 -1.88013 0 -1.82141e-12 -4.01459e-12 0 1.36296e-20 1.06053e-26
3534 118 0.0015 0.653201 -1.88093 0 8.22668e-13 3.82601e-12 0 0 7.36597e-27
10292 344 0.0015 -0.465124 -1.8785 0 -1.35635e-12 -9.17812e-13 0 0 1.66962e-27
10291 344 0.0015 -0.4623 -1.87941 0 -2.48866e-13 4.19458e-13 0 0 1.09937e-28
6074 203 0.0015 -0.411025 -1.87942 0 9.12048e-12 1.86821e-12 0 0 1.64779e-26
6075 203 0.0015 -0.412842 -1.87856 0 -7.33419e-12 8.44304e-13 0 0 1.42349e-26
7990 267 0.0015 -0.215808 -1.87844 0 8.95154e-13 7.81715e-12 0 0 1.32692e-27
7989 267 0.0015 -0.213482 -1.87932 0 1.75789e-12 -3.50285e-12 0 0 2.99633e-27
10329 345 0.0015 -0.0659339 -1.87841 0 -2.7569e-12 1.23399e-11 0 3.14298e-20 7.24688e-26
1955 66 0.0015 0.0137179 -1.87827 0 7.31728e-13 -6.52274e-12 0 0 2.97645e-26
10201 341 0.0015 0.290108 -1.87875 0 -3.9556e-13 3.63389e-12 0 0 2.51425e-26
3533 118 0.0015 0.655738 -1.87902 0 -8.1582e-13 -6.46078e-12 0 1.57149e-20 9.78517e-27
2647 89 0.0015 -0.593237 -1.87778 0 4.93566e-12 -2.3654e-12 0 5.32605e-21 2.39415e-26
10294 344 0.0015 -0.470773 -1.87669 0 8.81042e-12 -6.12141e-12 0 0 4.67886e-26
10293 344 0.0015 -0.467948 -1.87759 0 -1.37201e-12 3.29786e-12 0 0 1.27843e-26
6077 203 0.0015 -0.416475 -1.87683 0 1.80105e-11 1.76427e-11 0 0 4.03466e-26
6076 203 0.0015 -0.414658 -1.87769 0 -1.54317e-12 -1.26135e-11 0 0 9.99725e-27
6034 202 0.0015 -0.327828 -1.87791 0 3.21137e-12 -5.32951e-12 0 2.74394e-21 5.21176e-26
7992 267 0.0015 -0.22046 -1.87668 0 -1.50053e-12 3.63737e-13 0 0 8.56685e-27
7991 267 0.0015 -0.218134 -1.87756 0 -2.5402e-12 -4.40958e-12 0 0 2.204e-27
10267 343 0.0015 0.42201 -1.87716 0 -7.00742e-13 -5.37872e-13 0 0 2.89728e-26
1479 50 0.0015 0.574675 -1.87722 0 -3.9403e-13 1.88932e-12 0 6.81478e-21 1.14734e-26
3532 118 0.0015 0.658275 -1.8771 0 -8.54473e-12 -4.55123e-14 0 3.14298e-20 6.62838e-26
2648 89 0.0015 -0.596958 -1.87493 0 -2.73667e-12 6.91821e-13 0 0 4.38135e-27
10296 344 0.0015 -0.476421 -1.87487 0 4.43059e-12 1.77417e-12 0 0 1.85097e-26
10295 344 0.0015 -0.473597 -1.87578 0 -1.04385e-11 4.15804e-12 0 0 5.33066e-26
6080 203 0.0015 -0.421925 -1.87425 0 -1.23982e-11 2.69023e-12 0 2.48474e-20 6.96646e-26
6079 203 0.0015 -0.420108 -1.87511 0 6.63376e-12 4.08937e-12 0 2.48474e-20 5.85362e-27
6078 203 0.0015 -0.418291 -1.87597 0 -1.83661e-11 -1.19294e-11 0 0 4.5292e-26
7995 267 0.0015 -0.227437 -1.87404 0 9.32299e-12 5.24298e-12 0 0 1.95278e-26
7994 267 0.0015 -0.225111 -1.87492 0 -1.00753e-11 -4.19565e-12 0 0 2.76941e-26
7993 267 0.0015 -0.222785 -1.8758 0 9.87496e-12 1.70475e-13 0 0 3.19943e-26
10330 345 0.0015 -0.0666107 -1.87531 0 2.90635e-12 -1.32934e-11 0 1.57149e-20 8.22909e-26
6003 201 0.0015 0.496967 -1.87498 0 1.42122e-12 3.63263e-12 0 0 1.76226e-26
1480 50 0.0015 0.576901 -1.87431 0 2.9258e-12 9.47791e-13 0 0 3.57241e-27
3531 118 0.0015 0.660812 -1.87519 0 1.55337e-11 5.56507e-12 0 4.71447e-20 1.10236e-25
2649 89 0.0015 -0.600679 -1.87207 0 2.50294e-12 -1.50957e-12 0 0 5.53209e-27
10299 344 0.0015 -0.484893 -1.87215 0 3.98296e-13 -6.39195e-13 0 0 1.10825e-26
10298 344 0.0015 -0.482069 -1.87306 0 4.19609e-12 3.51333e-12 0 0 4.64802e-27
10297 344 0.0015 -0.479245 -1.87396 0 -1.35104e-12 -5.29868e-12 0 0 1.09445e-27
6082 203 0.0015 -0.425558 -1.87252 0 -1.47032e-11 1.79096e-12 0 2.48474e-20 7.52355e-26
6081 203 0.0015 -0.423741 -1.87338 0 2.19274e-11 -5.95796e-12 0 4.96948e-20 1.39687e-25
7997 267 0.0015 -0.232089 -1.87228 0 2.85223e-12 -2.31987e-12 0 0 1.28857e-26
7996 267 0.0015 -0.229763 -1.87316 0 -9.67516e-12 4.75444e-13 0 0 2.95207e-26
10331 345 0.0015 -0.0672875 -1.8722 0 -8.25682e-13 2.5777e-12 0 1.57149e-20 4.57326e-26
1956 66 0.0015 0.0132378 -1.87349 0 -3.77419e-13 2.65655e-12 0 0 9.44273e-27
8045 269 0.0015 0.152704 -1.87369 0 1.44641e-12 -1.44256e-11 0 3.6872e-21 2.00289e-25
10202 341 0.0015 0.289307 -1.87202 0 7.47986e-13 -7.29904e-12 0 0 5.06429e-26
4531 152 0.0015 0.366216 -1.8733 0 3.34192e-13 -2.0617e-12 0 8.59057e-21 1.05704e-26
10268 343 0.0015 0.422731 -1.8732 0 2.10995e-12 1.01274e-11 0 0 6.32634e-26
3530 118 0.0015 0.66335 -1.87327 0 -9.27894e-12 -1.54315e-12 0 4.71447e-20 4.74229e-26
10301 344 0.0015 -0.490541 -1.87033 0 1.32917e-11 1.18688e-12 0 0 6.24397e-26
10300 344 0.0015 -0.487717 -1.87124 0 -9.4655e-12 -1.13425e-12 0 0 3.44815e-26
6084 203 0.0015 -0.429191 -1.8708 0 2.75247e-12 -1.6211e-11 0 2.48474e-20 2.62365e-26
6083 203 0.0015 -0.427374 -1.87166 0 1.17566e-12 9.57683e-12 0 4.96948e-20 2.32944e-26
6035 202 0.0015 -0.332631 -1.87017 0 -3.25611e-12 5.35079e-12 0 0 5.26107e-26
7999 267 0.0015 -0.23674 -1.87052 0 -4.18897e-12 -4.70577e-12 0 0 2.55467e-27
7998 267 0.0015 -0.234415 -1.8714 0 3.29036e-12 1.20587e-12 0 0 2.86448e-27
1481 50 0.0015 0.579128 -1.8714 0 5.36457e-13 2.90174e-12 0 0 1.32735e-26
3529 118 0.0015 0.665887 -1.87136 0 3.72249e-12 -1.10525e-12 0 3.14298e-20 2.35305e-27
2650 89 0.0015 -0.6044 -1.86922 0 -3.38734e-12 3.29582e-12 0 0 1.59246e-26
10303 344 0.0015 -0.49619 -1.86852 0 4.35382e-12 5.35198e-13 0 0 1.29933e-26
10302 344 0.0015 -0.493366 -1.86943 0 -1.09532e-11 1.11646e-13 0 0 4.77132e-26
6087 203 0.0015 -0.434641 -1.86821 0 -2.94939e-12 6.0596e-12 0 2.48474e-20 1.2649e-26
6085 203 0.0015 -0.431008 -1.86994 0 1.12866e-12 1.0297e-11 0 4.96948e-20 7.29754e-27
6086 203 0.0015 -0.432824 -1.86908 0 2.16559e-12 -5.96807e-12 0 2.48474e-20 1.25159e-26
8001 267 0.0015 -0.241392 -1.86876 0 1.63518e-12 -1.35351e-11 0 0 1.50937e-26
8000 267 0.0015 -0.239066 -1.86964 0 2.02586e-12 1.05002e-11 0 0 3.38928e-27
8012 268 0.0015 -0.171924 -1.86923 0 -9.6339e-13 -2.70504e-12 0 0 1.6002e-26
10332 345 0.0015 -0.0679644 -1.86909 0 -1.43462e-12 8.27997e-12 0 0 3.18416e-26
1957 66 0.0015 0.0127576 -1.86871 0 -2.03611e-13 3.09155e-12 0 0 1.2963e-26
10269 343 0.0015 0.423451 -1.86924 0 -1.0441e-12 -6.83461e-12 0 0 4.64147e-26
1482 50 0.0015 0.581354 -1.86848 0 -2.79171e-12 -3.95513e-12 0 0 1.43106e-26
3528 118 0.0015 0.668424 -1.86944 0 6.96023e-13 2.6105e-12 0 1.57149e-20 1.11866e-26
2651 89 0.0015 -0.608121 -1.86636 0 4.98093e-12 -4.72984e-12 0 0 3.0618e-26
10305 344 0.0015 -0.501838 -1.8667 0 2.49365e-12 -2.42213e-12 0 0 1.27838e-26
10304 344 0.0015 -0.499014 -1.86761 0 2.7106e-13 -1.57897e-12 0 0 4.65385e-28
6089 203 0.0015 -0.438274 -1.86649 0 -4.52395e-12 1.03182e-11 0 0 3.52643e-26
6088 203 0.0015 -0.436457 -1.86735 0 -1.96314e-12 -6.74764e-12 0 0 3.50274e-28
8004 267 0.0015 -0.248369 -1.86612 0 -2.10277e-12 8.57801e-12 0 0 1.74152e-26
8003 267 0.0015 -0.246044 -1.867 0 7.6471e-12 -1.4521e-11 0 0 5.39034e-26
8002 267 0.0015 -0.243718 -1.86788 0 -6.4616e-12 1.51436e-11 0 0 4.82851e-26
8046 269 0.0015 0.152008 -1.86695 0 -1.08984e-12 1.09851e-11 0 0 1.39073e-25
6004 201 0.0015 0.499982 -1.86721 0 -1.3967e-12 -3.23759e-12 0 0 1.44565e-26
3527 118 0.0015 0.670962 -1.86752 0 -4.05174e-12 -3.21684e-12 0 0 1.2828e-26
10307 344 0.0015 -0.507486 -1.86489 0 2.45471e-12 -2.95333e-12 0 0 9.84239e-27
10306 344 0.0015 -0.504662 -1.8658 0 -5.60267e-12 6.47999e-12 0 0 2.21247e-26
6090 203 0.0015 -0.440091 -1.86563 0 5.86224e-12 -6.13108e-12 0 0 3.50728e-26
8006 267 0.0015 -0.253021 -1.86436 0 -1.21527e-11 4.99299e-12 0 0 6.72655e-26
8005 267 0.0015 -0.250695 -1.86524 0 2.91864e-12 -4.11606e-12 0 0 1.2219e-26
10333 345 0.0015 -0.0686412 -1.86599 0 1.76336e-12 -7.74115e-12 0 0 2.91557e-26
10203 341 0.0015 0.288506 -1.8653 0 -7.81792e-13 7.97186e-12 0 0 6.07394e-26
4532 152 0.0015 0.364868 -1.86469 0 -9.74731e-13 6.04075e-12 0 8.59057e-21 4.99299e-26
10270 343 0.0015 0.424172 -1.86529 0 4.02815e-13 3.48166e-12 0 0 1.04102e-26
1483 50 0.0015 0.58358 -1.86557 0 2.47431e-12 1.89787e-12 0 6.81478e-21 4.67386e-27
3526 118 0.0015 0.673499 -1.86561 0 4.81504e-14 -1.64233e-12 0 0 9.76425e-27
2652 89 0.0015 -0.611842 -1.86351 0 -2.80844e-12 2.60287e-12 0 0 1.79186e-26
10310 344 0.0015 -0.515959 -1.86217 0 4.90077e-13 -4.09457e-12 0 0 2.92179e-27
10309 344 0.0015 -0.513134 -1.86307 0 -1.4784e-12 5.40425e-12 0 0 4.05694e-27
10308 344 0.0015 -0.51031 -1.86398 0 4.7774e-13 -3.06871e-12 0 0 1.19167e-27
6036 202 0.0015 -0.337434 -1.86244 0 1.66013e-12 -2.66861e-12 0 2.74394e-21 1.5638e-26
8008 267 0.0015 -0.257673 -1.8626 0 4.45512e-14 -1.8124e-12 0 2.00918e-20 5.38271e-27
8007 267 0.0015 -0.255347 -1.86348 0 1.01976e-11 -2.80376e-12 0 1.00459e-20 5.68212e-26
10334 345 0.0015 -0.0693181 -1.86288 0 -1.92003e-12 4.92227e-12 0 0 1.24546e-26
1958 66 0.0015 0.0122775 -1.86393 0 2.56396e-13 -3.55326e-12 0 0 1.32255e-26
1484 50 0.0015 0.585807 -1.86266 0 -3.10441e-12 -2.29316e-12 0 6.81478e-21 7.06089e-27
3525 118 0.0015 0.676036 -1.86369 0 -4.81504e-14 1.64233e-12 0 0 9.76425e-27
2653 89 0.0015 -0.615563 -1.86065 0 -1.27947e-12 6.96966e-13 0 0 3.12392e-27
10312 344 0.0015 -0.521607 -1.86035 0 -8.15627e-13 -9.19036e-13 0 0 6.77367e-27
10311 344 0.0015 -0.518783 -1.86126 0 3.09365e-12 1.72629e-12 0 0 4.22863e-27
8010 267 0.0015 -0.262324 -1.86085 0 -1.30742e-12 3.07268e-13 0 1.00459e-20 1.22467e-27
8009 267 0.0015 -0.259998 -1.86172 0 -5.3992e-13 1.2694e-12 0 2.00918e-20 4.83296e-27
8047 269 0.0015 0.151313 -1.86021 0 2.83762e-13 -3.19805e-12 0 0 1.67363e-26
10271 343 0.0015 0.424893 -1.86133 0 -1.90949e-12 -9.61262e-12 0 0 6.15722e-26
3524 118 0.0015 0.678573 -1.86178 0 4.05174e-12 3.21684e-12 0 0 1.2828e-26
10314 344 0.0015 -0.527255 -1.85854 0 -1.57952e-12 2.67385e-12 0 1.68424e-20 2.35551e-27
10313 344 0.0015 -0.524431 -1.85944 0 -1.24408e-12 -9.6415e-13 0 0 3.19633e-27
10335 345 0.0015 -0.0699949 -1.85978 0 1.47015e-12 -2.45635e-12 0 0 4.2658e-27
1959 66 0.0015 0.0117974 -1.85915 0 1.64936e-13 -6.87476e-13 0 0 2.01077e-27
4771 160 0.0015 0.0785585 -1.85825 0 4.06007e-14 -1.45648e-12 0 0 5.42605e-27
10204 341 0.0015 0.287705 -1.85857 0 5.32664e-13 -5.5337e-12 0 0 3.80888e-26
6005 201 0.0015 0.502997 -1.85945 0 -1.86417e-13 -8.97927e-13 0 0 2.09186e-26
1485 50 0.0015 0.588033 -1.85975 0 4.20576e-13 -9.8434e-13 0 6.81478e-21 1.08584e-26
3523 118 0.0015 0.681111 -1.85986 0 -6.96023e-13 -2.6105e-12 0 1.57149e-20 1.11866e-26
2654 89 0.0015 -0.619284 -1.8578 0 4.01588e-12 -2.32665e-12 0 0 1.52885e-26
10316 344 0.0015 -0.532903 -1.85672 0 7.08864e-12 -1.1303e-12 0 1.68424e-20 2.31199e-26
10315 344 0.0015 -0.530079 -1.85763 0 -3.48179e-12 -3.85132e-14 0 1.68424e-20 2.03143e-26
8013 268 0.0015 -0.167482 -1.85688 0 6.42202e-13 1.77735e-12 0 0 1.18402e-26
10336 345 0.0015 -0.0706718 -1.85667 0 -1.29583e-13 9.09391e-13 0 0 4.05247e-28
4533 152 0.0015 0.36352 -1.85607 0 8.98944e-13 -5.64068e-12 0 8.59057e-21 4.62118e-26
10272 343 0.0015 0.425614 -1.85738 0 2.37537e-12 1.08046e-11 0 0 7.1794e-26
1486 50 0.0015 0.59026 -1.85684 0 -4.20576e-13 9.8434e-13 0 6.81478e-21 1.08584e-26
3522 118 0.0015 0.683648 -1.85795 0 -3.72249e-12 1.10525e-12 0 3.14298e-20 2.35305e-27
3521 118 0.0015 0.686185 -1.85603 0 9.27894e-12 1.54315e-12 0 4.71447e-20 4.74229e-26
2655 89 0.0015 -0.623004 -1.85494 0 -6.16046e-12 3.4694e-12 0 0 3.24235e-26
10318 344 0.0015 -0.538552 -1.85491 0 -2.11535e-12 1.78047e-12 0 1.68424e-20 4.0798e-27
10317 344 0.0015 -0.535727 -1.85581 0 -5.22307e-13 -1.13693e-12 0 0 8.50129e-27
6037 202 0.0015 -0.342237 -1.85471 0 -9.0703e-13 1.40824e-12 0 5.48788e-21 3.56206e-27
1960 66 0.0015 0.0113172 -1.85437 0 -1.94833e-14 -6.87038e-13 0 0 6.19714e-27
3520 118 0.0015 0.688722 -1.85412 0 -1.55337e-11 -5.56507e-12 0 4.71447e-20 1.10236e-25
2656 89 0.0015 -0.626725 -1.85209 0 4.17742e-12 -2.05271e-12 0 0 2.07482e-26
10320 344 0.0015 -0.5442 -1.85309 0 3.52589e-13 4.01868e-13 0 1.68424e-20 3.73014e-29
10319 344 0.0015 -0.541376 -1.854 0 -1.77722e-13 -1.04531e-12 0 1.68424e-20 1.46054e-28
10337 345 0.0015 -0.0713486 -1.85356 0 -1.18902e-12 7.75564e-13 0 0 1.6488e-27
8048 269 0.0015 0.150617 -1.85348 0 1.78585e-13 -1.28125e-12 0 0 4.51396e-27
10273 343 0.0015 0.426335 -1.85342 0 -1.24407e-12 -4.4659e-12 0 0 2.05051e-26
1487 50 0.0015 0.592486 -1.85392 0 3.10441e-12 2.29316e-12 0 6.81478e-21 7.06089e-27
3519 118 0.0015 0.69126 -1.8522 0 8.54473e-12 4.55123e-14 0 3.14298e-20 6.62838e-26
10338 345 0.0015 -0.0720254 -1.85046 0 1.60019e-12 -3.16109e-12 0 0 5.45543e-27
10205 341 0.0015 0.286904 -1.85184 0 2.94545e-13 -2.2241e-12 0 0 2.55607e-26
6006 201 0.0015 0.506013 -1.85168 0 2.08152e-12 5.664e-12 0 0 4.32304e-26
1488 50 0.0015 0.594712 -1.85101 0 -2.47431e-12 -1.89787e-12 0 6.81478e-21 4.67386e-27
3518 118 0.0015 0.693797 -1.85028 0 8.1582e-13 6.46078e-12 0 1.57149e-20 9.78517e-27
2657 89 0.0015 -0.630446 -1.84923 0 -3.06716e-12 2.21868e-12 0 0 1.35311e-26
1961 66 0.0015 0.0108371 -1.84959 0 -2.87764e-13 3.61266e-12 0 0 8.75821e-27
4772 160 0.0015 0.0782973 -1.84905 0 -5.17563e-14 1.93061e-12 0 0 6.00092e-27
10274 343 0.0015 0.427056 -1.84946 0 -1.08867e-12 -8.92712e-12 0 0 9.72418e-26
1489 50 0.0015 0.596939 -1.8481 0 2.79171e-12 3.95513e-12 0 0 1.43106e-26
3517 118 0.0015 0.696334 -1.84837 0 -8.22668e-13 -3.82601e-12 0 0 7.36597e-27
2658 89 0.0015 -0.634167 -1.84638 0 2.90658e-12 -3.46933e-12 0 5.32605e-21 1.50819e-26
6038 202 0.0015 -0.34704 -1.84697 0 1.51831e-12 -2.31235e-12 0 5.48788e-21 1.08847e-26
10339 345 0.0015 -0.0727023 -1.84735 0 -1.55781e-12 5.08087e-12 0 0 1.29143e-26
8049 269 0.0015 0.149922 -1.84674 0 -6.41604e-13 5.80348e-12 0 0 3.93377e-26
6541 219 0.0015 0.213251 -1.84656 0 -2.80548e-13 3.36075e-12 0 0 2.24582e-26
4534 152 0.0015 0.362172 -1.84745 0 -2.58762e-13 1.7344e-12 0 0 6.86485e-27
3516 118 0.0015 0.698871 -1.84645 0 -2.64357e-12 -2.38106e-12 0 0 1.15724e-26
8014 268 0.0015 -0.163039 -1.84452 0 4.79654e-13 1.39041e-12 0 0 8.91812e-27
10340 345 0.0015 -0.0733791 -1.84424 0 2.57004e-12 -1.05118e-11 0 0 6.03263e-26
1962 66 0.0015 0.010357 -1.84481 0 4.82947e-13 -5.32605e-12 0 0 2.11272e-26
10206 341 0.0015 0.286103 -1.84511 0 -6.55344e-13 5.94394e-12 0 0 3.45273e-26
10275 343 0.0015 0.427777 -1.84551 0 3.7563e-12 2.44117e-11 0 0 3.6085e-25
1490 50 0.0015 0.599165 -1.84519 0 -5.36457e-13 -2.90174e-12 0 0 1.32735e-26
3515 118 0.0015 0.701409 -1.84454 0 6.59226e-12 6.99581e-12 0 1.57149e-20 4.1864e-26
2659 89 0.0015 -0.637888 -1.84352 0 -1.59918e-12 2.84949e-12 0 5.32605e-21 6.03353e-27
6007 201 0.0015 0.509028 -1.84391 0 -2.35902e-12 -6.35616e-12 0 0 5.32488e-26
1491 50 0.0015 0.601391 -1.84228 0 -2.9258e-12 -9.47791e-13 0 0 3.57241e-27
3514 118 0.0015 0.703946 -1.84262 0 -2.76102e-12 -4.25079e-12 0 3.14298e-20 3.13505e-26
2660 89 0.0015 -0.641609 -1.84066 0 5.51571e-12 -5.36274e-12 0 5.32605e-21 4.92217e-26
10341 345 0.0015 -0.074056 -1.84114 0 -1.11542e-12 6.4626e-12 0 0 5.23199e-26
1963 66 0.0015 0.00987681 -1.84004 0 -9.69309e-13 9.93708e-12 0 0 7.20413e-26
10276 343 0.0015 0.428498 -1.84155 0 -3.7563e-12 -2.44117e-11 0 0 3.6085e-25
3513 118 0.0015 0.706483 -1.84071 0 -9.31992e-12 -4.44933e-12 0 4.71447e-20 7.30084e-26
6039 202 0.0015 -0.351842 -1.83924 0 -3.07612e-12 4.68393e-12 0 2.74394e-21 4.4035e-26
10342 345 0.0015 -0.0747328 -1.83803 0 -1.71537e-12 1.66014e-12 0 0 1.75429e-27
4773 160 0.0015 0.0780361 -1.83985 0 7.4963e-14 -2.79686e-12 0 0 1.43743e-26
8050 269 0.0015 0.149226 -1.84 0 2.74001e-13 -2.28649e-12 0 0 4.25007e-26
6542 219 0.0015 0.21269 -1.83947 0 4.28515e-13 -4.90773e-12 0 0 2.72258e-26
10207 341 0.0015 0.285302 -1.83839 0 -1.83629e-13 8.71988e-13 0 0 3.34864e-26
4535 152 0.0015 0.360823 -1.83883 0 1.63565e-13 -1.07543e-12 0 0 2.51309e-27
1492 50 0.0015 0.603618 -1.83936 0 3.9403e-13 -1.88932e-12 0 6.81478e-21 1.14734e-26
3512 118 0.0015 0.70902 -1.83879 0 1.0999e-11 6.19589e-12 0 3.14298e-20 8.26793e-26
2661 89 0.0015 -0.64533 -1.83781 0 -8.01138e-12 7.27525e-12 0 0 7.6419e-26
10277 343 0.0015 0.429219 -1.8376 0 1.08867e-12 8.92712e-12 0 0 9.72418e-26
6008 201 0.0015 0.512043 -1.83614 0 2.38567e-12 6.3229e-12 0 0 5.29034e-26
1493 50 0.0015 0.605844 -1.83645 0 1.82141e-12 4.01459e-12 0 1.36296e-20 1.06053e-26
3511 118 0.0015 0.711558 -1.83688 0 -3.10148e-12 -1.67562e-12 0 1.57149e-20 1.07248e-26
2662 89 0.0015 -0.649051 -1.83495 0 4.72749e-12 -5.00191e-12 0 5.32605e-21 3.58979e-26
10343 345 0.0015 -0.0754097 -1.83493 0 1.92475e-12 5.88925e-13 0 0 1.77716e-27
1964 66 0.0015 0.00939668 -1.83526 0 1.4343e-12 -1.45852e-11 0 5.20104e-21 1.45409e-25
2663 89 0.0015 -0.652772 -1.8321 0 -9.39939e-13 1.68763e-12 0 5.32605e-21 4.74391e-27
10171 340 0.0015 -0.234195 -1.83312 0 -1.8644e-12 2.58337e-12 0 6.39056e-21 2.20389e-26
8015 268 0.0015 -0.158597 -1.83216 0 -1.83702e-12 -5.14241e-12 0 0 6.43541e-26
8051 269 0.0015 0.14853 -1.83326 0 4.82778e-13 -4.84303e-12 0 0 2.29774e-26
6543 219 0.0015 0.212128 -1.83239 0 -1.33245e-13 1.26537e-12 0 3.51396e-21 4.9245e-27
10278 343 0.0015 0.429939 -1.83364 0 1.24407e-12 4.4659e-12 0 0 2.05051e-26
1494 50 0.0015 0.60807 -1.83354 0 3.04764e-12 2.97671e-12 0 1.36296e-20 3.37723e-26
6040 202 0.0015 -0.356645 -1.83151 0 2.73344e-12 -4.16797e-12 0 0 3.91398e-26
10344 345 0.0015 -0.0760865 -1.83182 0 -4.03325e-12 9.64425e-12 0 0 1.15085e-25
1965 66 0.0015 0.00891654 -1.83048 0 -1.03351e-12 1.06143e-11 0 5.20104e-21 9.81458e-26
4774 160 0.0015 0.0777749 -1.83066 0 -7.47222e-14 2.71302e-12 0 2.71488e-21 1.41891e-26
10208 341 0.0015 0.284501 -1.83166 0 8.49769e-13 -6.33053e-12 0 0 3.85303e-26
4536 152 0.0015 0.359475 -1.83021 0 -3.3044e-13 1.99925e-12 0 0 4.97474e-27
1495 50 0.0015 0.610297 -1.83063 0 -5.67994e-12 -6.20554e-12 0 1.36296e-20 3.97539e-26
2664 89 0.0015 -0.656493 -1.82924 0 -5.0503e-13 -1.47948e-13 0 5.32605e-21 6.44142e-29
10345 345 0.0015 -0.0767633 -1.82871 0 3.98092e-12 -1.21759e-11 0 0 1.15732e-25
10279 343 0.0015 0.43066 -1.82968 0 -2.37537e-12 -1.08046e-11 0 0 7.1794e-26
6009 201 0.0015 0.515058 -1.82837 0 -2.33556e-12 -5.9615e-12 0 0 4.78122e-26
2665 89 0.0015 -0.660213 -1.82639 0 -2.73737e-12 2.70338e-12 0 0 2.08599e-26
10172 340 0.0015 -0.238704 -1.82673 0 2.68879e-12 -3.63387e-12 0 6.39056e-21 2.59012e-26
8052 269 0.0015 0.147835 -1.82652 0 1.04476e-14 -1.25521e-13 0 0 3.21996e-26
1496 50 0.0015 0.612523 -1.82772 0 5.18956e-13 -1.71875e-12 0 1.36296e-20 2.2906e-26
10346 345 0.0015 -0.0774402 -1.82561 0 -5.71003e-13 -7.02837e-13 0 0 5.02276e-27
1966 66 0.0015 0.0084364 -1.8257 0 -1.00466e-13 9.95824e-13 0 5.20104e-21 2.37784e-26
6544 219 0.0015 0.211567 -1.8253 0 1.79205e-16 -1.22375e-13 0 3.51396e-21 4.7902e-28
10209 341 0.0015 0.2837 -1.82493 0 -4.94857e-13 3.15815e-12 0 0 1.69366e-26
10280 343 0.0015 0.431381 -1.82573 0 1.90949e-12 9.61262e-12 0 0 6.15722e-26
1497 50 0.0015 0.614749 -1.8248 0 -2.98088e-13 2.89401e-12 0 1.36296e-20 1.80059e-26
2666 89 0.0015 -0.663934 -1.82353 0 7.18761e-12 -5.9442e-12 0 0 5.77399e-26
6041 202 0.0015 -0.361448 -1.82377 0 -1.09628e-13 1.37834e-13 0 2.74394e-21 6.91888e-27
10347 345 0.0015 -0.078117 -1.8225 0 8.60499e-13 -4.14321e-12 0 0 3.70312e-26
2667 89 0.0015 -0.667655 -1.82068 0 -3.62618e-12 2.67346e-12 0 0 3.77966e-26
10173 340 0.0015 -0.243212 -1.82034 0 -2.291e-13 1.85395e-13 0 6.39056e-21 6.25678e-27
1967 66 0.0015 0.00795626 -1.82092 0 3.25567e-13 -3.75766e-12 0 0 1.59625e-26
4775 160 0.0015 0.0775136 -1.82146 0 -5.1522e-14 1.80126e-12 0 2.71488e-21 1.26751e-26
4537 152 0.0015 0.358127 -1.82159 0 2.26127e-13 -1.40275e-12 0 0 2.88228e-27
10281 343 0.0015 0.432102 -1.82177 0 -4.02815e-13 -3.48166e-12 0 0 1.04102e-26
6010 201 0.0015 0.518074 -1.8206 0 1.66876e-12 4.22968e-12 0 0 2.58629e-26
1498 50 0.0015 0.616976 -1.82189 0 6.01119e-12 5.08883e-12 0 6.81478e-21 3.93507e-26
8016 268 0.0015 -0.154154 -1.81981 0 2.12998e-12 5.88251e-12 0 0 7.57223e-26
10348 345 0.0015 -0.0787939 -1.81939 0 -1.0717e-12 8.08623e-12 0 1.57149e-20 3.70566e-26
8053 269 0.0015 0.147139 -1.81978 0 -5.56284e-13 5.31187e-12 0 0 2.72184e-26
6545 219 0.0015 0.211005 -1.81821 0 1.34098e-13 -1.13675e-12 0 3.51396e-21 5.05205e-27
10210 341 0.0015 0.282899 -1.8182 0 1.0829e-13 -1.63031e-13 0 3.6872e-21 7.75891e-29
1499 50 0.0015 0.619202 -1.81898 0 -3.47713e-12 -3.20459e-12 0 0 3.81045e-26
2668 89 0.0015 -0.671376 -1.81782 0 -9.76009e-13 9.83078e-13 0 0 1.27358e-27
6042 202 0.0015 -0.366251 -1.81604 0 -5.286e-13 8.32103e-13 0 2.74394e-21 2.96543e-27
10349 345 0.0015 -0.0794707 -1.81629 0 5.25803e-13 -5.00379e-12 0 1.57149e-20 1.15737e-26
1968 66 0.0015 0.00747613 -1.81614 0 5.33069e-13 -4.32262e-12 0 5.20104e-21 2.93922e-26
10282 343 0.0015 0.432823 -1.81781 0 1.0441e-12 6.83461e-12 0 0 4.64147e-26
1500 50 0.0015 0.621428 -1.81607 0 -6.60751e-13 -1.15191e-12 0 0 1.76453e-27
2669 89 0.0015 -0.675097 -1.81497 0 -1.84857e-12 1.4208e-12 0 0 1.12433e-26
5941 199 0.0015 0.740778 -1.81551 0 1.09359e-13 5.2039e-13 0 2.60052e-21 7.53712e-28
2670 89 0.0015 -0.678818 -1.81211 0 2.26354e-12 -1.78932e-12 0 0 1.08441e-26
10174 340 0.0015 -0.24772 -1.81396 0 -7.9896e-13 1.04572e-12 0 0 2.54693e-27
10350 345 0.0015 -0.0801475 -1.81318 0 -5.14929e-13 3.0079e-12 0 1.57149e-20 8.20729e-27
4776 160 0.0015 0.0772524 -1.81226 0 1.24747e-13 -4.34593e-12 0 2.71488e-21 2.41581e-26
8054 269 0.0015 0.146443 -1.81304 0 3.40667e-13 -2.89332e-12 0 0 1.10142e-26
4538 152 0.0015 0.356779 -1.81297 0 2.40447e-13 -1.42733e-12 0 0 8.77078e-27
10283 343 0.0015 0.433544 -1.81386 0 -2.10995e-12 -1.01274e-11 0 0 6.32634e-26
6011 201 0.0015 0.521089 -1.81283 0 -3.78952e-13 -1.0901e-12 0 0 6.64664e-27
1969 66 0.0015 0.00699599 -1.81136 0 -1.15895e-12 1.04827e-11 0 5.20104e-21 7.51225e-26
6546 219 0.0015 0.210443 -1.81113 0 -3.76713e-13 4.14317e-12 0 0 1.82052e-26
10211 341 0.0015 0.282098 -1.81148 0 9.36015e-15 -3.1752e-13 0 7.37441e-21 1.59372e-28
6043 202 0.0015 -0.371054 -1.8083 0 -1.02488e-12 1.57851e-12 0 2.74394e-21 8.11121e-27
10284 343 0.0015 0.434265 -1.8099 0 7.00742e-13 5.37872e-13 0 0 2.89728e-26
10175 340 0.0015 -0.252228 -1.80757 0 1.63845e-12 -2.11318e-12 0 0 1.27262e-26
8017 268 0.0015 -0.149712 -1.80745 0 -7.38076e-13 -1.98461e-12 0 0 2.04654e-26
1970 66 0.0015 0.00651585 -1.80658 0 9.64557e-13 -8.90795e-12 0 1.04021e-20 5.86611e-26
8055 269 0.0015 0.145748 -1.8063 0 -3.86394e-14 -3.21958e-13 0 0 2.03147e-27
5942 199 0.0015 0.743061 -1.80618 0 -5.21415e-13 -2.35369e-12 0 2.60052e-21 1.01715e-26
6547 219 0.0015 0.209882 -1.80404 0 1.93567e-13 -2.03653e-12 0 0 1.41098e-26
10212 341 0.0015 0.281297 -1.80475 0 -3.12833e-13 3.00367e-12 0 1.10616e-20 1.41815e-26
4539 152 0.0015 0.35543 -1.80435 0 -4.62799e-13 2.79208e-12 0 0 1.06537e-26
10285 343 0.0015 0.434986 -1.80595 0 9.01325e-13 7.9761e-12 0 1.24237e-20 3.70618e-26