ITEM: TIMESTEP
89010
ITEM: NUMBER OF ATOMS
10500
ITEM: BOX BOUNDS pp pp pp
-1.0249999999999999e+00 1.0249999999999999e+00
-2.0000000000000000e+00 2.0000000000000000e+00
-5.0000000000000003e-02 5.0000000000000003e-02
ITEM: ATOMS id type radius x y z fx fy fz c_bendingE c_stretchingE
10321 345 0.0015 -0.0605191 -1.90326 0 3.05339e-13 -1.02488e-12 0 0 1.00427e-27
6031 202 0.0015 -0.31342 -1.90111 0 -1.67839e-12 2.68412e-12 0 0 2.5342e-26
10322 345 0.0015 -0.061196 -1.90016 0 -2.04158e-12 8.68508e-12 0 0 5.5482e-26
8041 269 0.0015 0.155487 -1.90065 0 -3.30487e-13 3.29448e-12 0 0 2.06305e-26
10261 343 0.0015 0.417684 -1.90089 0 -3.59228e-13 -1.96256e-12 0 0 4.44661e-27
1471 50 0.0015 0.556864 -1.90052 0 8.85595e-13 1.75487e-12 0 0 3.80056e-27
10323 345 0.0015 -0.0618728 -1.89705 0 3.23447e-12 -1.55808e-11 0 0 1.11819e-25
1951 66 0.0015 0.0156385 -1.89738 0 1.37715e-13 -1.40977e-12 0 5.20104e-21 2.67679e-27
10262 343 0.0015 0.418405 -1.89694 0 2.10431e-12 1.18944e-11 0 0 1.1803e-25
1472 50 0.0015 0.559091 -1.8976 0 3.55105e-13 -6.76274e-13 0 0 6.44124e-27
2641 89 0.0015 -0.570912 -1.89491 0 1.67744e-14 -2.60296e-13 0 0 3.84374e-29
1473 50 0.0015 0.561317 -1.89469 0 -2.33486e-13 -1.37551e-13 0 0 4.52212e-27
2642 89 0.0015 -0.574633 -1.89206 0 6.04505e-14 6.31053e-13 0 0 7.36672e-29
6032 202 0.0015 -0.318223 -1.89337 0 3.34389e-12 -5.34312e-12 0 0 5.02357e-26
10324 345 0.0015 -0.0625496 -1.89394 0 -2.62761e-12 1.44737e-11 0 0 9.63148e-26
1952 66 0.0015 0.0151583 -1.8926 0 -2.55148e-13 2.8201e-12 0 5.20104e-21 5.34806e-27
8042 269 0.0015 0.154791 -1.89391 0 8.89924e-13 -8.91045e-12 0 0 8.05716e-26
10263 343 0.0015 0.419126 -1.89298 0 -3.23819e-12 -1.84552e-11 0 0 1.9722e-25
3540 118 0.0015 0.637977 -1.89243 0 2.21731e-12 1.54151e-12 0 0 6.43024e-27
6061 203 0.0015 -0.387409 -1.89062 0 -1.66714e-12 2.89792e-12 0 0 4.21877e-27
10325 345 0.0015 -0.0632265 -1.89084 0 2.11263e-12 -1.06789e-11 0 1.57149e-20 5.48535e-26
10231 342 0.0015 0.215 -1.89 0 -1.38285e-12 0 0 0 3.66217e-28
10232 342 0.0015 0.21569 -1.89 0 9.77746e-13 0 0 0 3.97586e-28
10233 342 0.0015 0.216379 -1.89 0 3.29656e-12 0 0 0 1.633e-27
10234 342 0.0015 0.217069 -1.89 0 -7.17177e-12 0 0 0 5.11141e-27
10235 342 0.0015 0.217759 -1.89 0 8.43906e-12 0 0 0 6.82374e-27
10236 342 0.0015 0.218448 -1.89 0 -9.99634e-12 0 0 0 9.8427e-27
10237 342 0.0015 0.219138 -1.89 0 1.34382e-11 0 0 0 1.75944e-26
10238 342 0.0015 0.219828 -1.89 0 -1.44162e-11 0 0 0 1.99651e-26
10239 342 0.0015 0.220517 -1.89 0 1.3076e-11 0 0 0 1.64066e-26
10240 342 0.0015 0.221207 -1.89 0 -1.41993e-11 0 0 0 1.95804e-26
10241 342 0.0015 0.221897 -1.89 0 1.53579e-11 0 0 0 2.26178e-26
10242 342 0.0015 0.222586 -1.89 0 -1.217e-11 0 0 0 1.48691e-26
10243 342 0.0015 0.223276 -1.89 0 9.27259e-12 0 0 0 8.24077e-27
10244 342 0.0015 0.223966 -1.89 0 -1.06128e-11 0 0 0 1.10245e-26
10245 342 0.0015 0.224655 -1.89 0 1.5104e-11 0 0 0 2.26696e-26
10246 342 0.0015 0.225345 -1.89 0 -1.5104e-11 0 0 0 2.26696e-26
10247 342 0.0015 0.226034 -1.89 0 1.06128e-11 0 0 0 1.10245e-26
10248 342 0.0015 0.226724 -1.89 0 -9.27259e-12 0 0 0 8.24077e-27
10249 342 0.0015 0.227414 -1.89 0 1.217e-11 0 0 0 1.48691e-26
10250 342 0.0015 0.228103 -1.89 0 -1.53579e-11 0 0 0 2.26178e-26
10251 342 0.0015 0.228793 -1.89 0 1.41993e-11 0 0 0 1.95804e-26
10252 342 0.0015 0.229483 -1.89 0 -1.3076e-11 0 0 0 1.64066e-26
10253 342 0.0015 0.230172 -1.89 0 1.44162e-11 0 0 0 1.99651e-26
10254 342 0.0015 0.230862 -1.89 0 -1.34382e-11 0 0 0 1.75944e-26
10255 342 0.0015 0.231552 -1.89 0 9.99634e-12 0 0 0 9.8427e-27
10256 342 0.0015 0.232241 -1.89 0 -8.43906e-12 0 0 0 6.82374e-27
10257 342 0.0015 0.232931 -1.89 0 7.17177e-12 0 0 0 5.11141e-27
10258 342 0.0015 0.233621 -1.89 0 -3.29656e-12 0 0 0 1.633e-27
10259 342 0.0015 0.23431 -1.89 0 -9.77746e-13 0 0 0 3.97586e-28
10260 342 0.0015 0.235 -1.89 0 1.38285e-12 0 0 0 3.66217e-28
6001 201 0.0015 0.490936 -1.89052 0 -2.05259e-12 -5.14104e-12 0 0 7.09255e-26
1474 50 0.0015 0.563543 -1.89178 0 -2.32004e-12 -2.13783e-12 0 6.81478e-21 4.99294e-27
3539 118 0.0015 0.640514 -1.89051 0 -1.62614e-12 -1.12928e-13 0 0 7.99841e-27
2643 89 0.0015 -0.578354 -1.8892 0 -1.3621e-12 1.91773e-13 0 0 2.45133e-27
6063 203 0.0015 -0.391043 -1.8889 0 -6.41556e-12 5.24318e-12 0 0 1.98683e-26
6064 203 0.0015 -0.392859 -1.88804 0 9.57381e-12 -6.61589e-13 0 0 2.30451e-26
6062 203 0.0015 -0.389226 -1.88976 0 2.89794e-12 -6.72524e-12 0 0 8.45065e-27
10264 343 0.0015 0.419847 -1.88903 0 1.9484e-12 1.04522e-11 0 1.24237e-20 8.80121e-26
1475 50 0.0015 0.56577 -1.88887 0 1.28019e-12 6.451e-13 0 1.36296e-20 3.32516e-27
3538 118 0.0015 0.643052 -1.8886 0 -1.72391e-12 -4.46248e-12 0 0 8.15973e-27
2644 89 0.0015 -0.582074 -1.88635 0 1.98337e-12 -6.73697e-13 0 0 2.91984e-27
6066 203 0.0015 -0.396492 -1.88631 0 -1.22618e-11 -1.07666e-11 0 2.48474e-20 1.40344e-26
6065 203 0.0015 -0.394676 -1.88717 0 -8.35773e-13 2.59317e-12 0 2.48474e-20 9.1692e-27
7981 267 0.0015 -0.194876 -1.88635 0 -2.92782e-12 1.14457e-12 0 0 6.82508e-27
10326 345 0.0015 -0.0639033 -1.88773 0 -2.18994e-12 7.72563e-12 0 1.57149e-20 2.84593e-26
1953 66 0.0015 0.0146782 -1.88782 0 6.08898e-13 -6.64259e-12 0 1.04021e-20 3.95157e-26
8043 269 0.0015 0.154095 -1.88717 0 -9.22381e-13 9.19831e-12 0 0 8.43394e-26
3537 118 0.0015 0.645589 -1.88668 0 2.91295e-12 6.79566e-12 0 0 1.85987e-26
6068 203 0.0015 -0.400126 -1.88459 0 -5.08017e-12 -5.84722e-12 0 0 9.53397e-27
6067 203 0.0015 -0.398309 -1.88545 0 1.48753e-11 1.16193e-11 0 2.48474e-20 2.0217e-26
6033 202 0.0015 -0.323025 -1.88564 0 -1.84354e-12 2.96471e-12 0 0 2.52099e-26
7983 267 0.0015 -0.199527 -1.8846 0 -1.12543e-12 4.43939e-12 0 0 2.67539e-27
7982 267 0.0015 -0.197202 -1.88548 0 4.16656e-12 -2.89222e-12 0 0 9.00586e-27
10327 345 0.0015 -0.0645802 -1.88463 0 2.4419e-12 -7.45159e-12 0 3.14298e-20 2.68961e-26
10265 343 0.0015 0.420568 -1.88507 0 -6.02058e-13 -2.01916e-12 0 1.24237e-20 4.39074e-27
1476 50 0.0015 0.567996 -1.88596 0 -6.97045e-13 5.41368e-13 0 1.36296e-20 4.21107e-28
3536 118 0.0015 0.648126 -1.88476 0 -7.6156e-12 -9.8796e-12 0 0 7.34813e-26
2645 89 0.0015 -0.585795 -1.88349 0 -1.72555e-13 -3.72233e-13 0 5.32605e-21 1.16332e-27
6071 203 0.0015 -0.405575 -1.882 0 7.92353e-12 7.54774e-12 0 0 5.86771e-27
6070 203 0.0015 -0.403759 -1.88287 0 -4.29565e-12 1.19243e-13 0 0 5.87533e-27
6069 203 0.0015 -0.401942 -1.88373 0 -4.37855e-13 1.1826e-12 0 0 1.93518e-27
7985 267 0.0015 -0.204179 -1.88284 0 -2.85958e-12 9.88398e-12 0 0 1.32666e-26
7984 267 0.0015 -0.201853 -1.88372 0 1.28056e-12 -6.91602e-12 0 0 5.90249e-27
1954 66 0.0015 0.0141981 -1.88304 0 -1.08081e-12 1.12383e-11 0 5.20104e-21 8.54326e-26
6002 201 0.0015 0.493952 -1.88275 0 3.19492e-12 7.82298e-12 0 0 9.0575e-26
1477 50 0.0015 0.570222 -1.88304 0 1.71944e-12 2.80911e-14 0 6.81478e-21 5.9287e-28
3535 118 0.0015 0.650663 -1.88285 0 5.55511e-12 6.46892e-12 0 0 6.14743e-26
2646 89 0.0015 -0.589516 -1.88064 0 -1.5943e-12 1.0424e-12 0 1.06521e-20 2.49792e-27
6073 203 0.0015 -0.409209 -1.88028 0 1.54498e-11 1.24338e-11 0 0 2.12657e-26
6072 203 0.0015 -0.407392 -1.88114 0 -1.36784e-11 -1.54362e-11 0 0 1.41051e-26
7988 267 0.0015 -0.211156 -1.8802 0 2.14771e-12 -3.69718e-12 0 0 5.50194e-27
7987 267 0.0015 -0.208831 -1.88108 0 -4.13539e-12 7.68969e-12 0 0 1.53718e-26
7986 267 0.0015 -0.206505 -1.88196 0 3.58816e-12 -1.08453e-11 0 0 1.79361e-26
8011 268 0.0015 -0.176367 -1.88159 0 3.5429e-13 9.98298e-13 0 1.90242e-21 4.09275e-27
10328 345 0.0015 -0.065257 -1.88152 0 -1.14794e-12 2.80529e-12 0 3.14298e-20 1.52742e-26
8044 269 0.0015 0.1534 -1.88043 0 4.6539e-13 -4.38841e-12 0 0 2.56401e-26
10266 343 0.0015 0.421289 -1.88111 0 -1.78992e-13 -1.73811e-12 0 1.24237e-20 3.86748e-27
1478 50 0.0015 0.572449 -1.88013 0 -2.33424e-12 -1.1725e-12 0 0 3.44671e-27
3534 118 0.0015 0.653201 -1.88093 0 4.71939e-12 3.39204e-12 0 0 2.96889e-26
10292 344 0.0015 -0.465124 -1.8785 0 3.02042e-12 -6.38393e-12 0 1.68424e-20 1.30052e-26
10291 344 0.0015 -0.4623 -1.87941 0 -2.98024e-13 2.26921e-12 0 1.68424e-20 7.87983e-28
6074 203 0.0015 -0.411025 -1.87942 0 -9.6977e-12 -7.5883e-12 0 0 9.39883e-27
6075 203 0.0015 -0.412842 -1.87856 0 1.10813e-11 7.72906e-12 0 0 1.50587e-26
7990 267 0.0015 -0.215808 -1.87844 0 -1.50962e-12 -2.12834e-12 0 0 4.17738e-28
7989 267 0.0015 -0.213482 -1.87932 0 3.29523e-13 2.73353e-12 0 0 2.15982e-28
10329 345 0.0015 -0.0659339 -1.87841 0 -6.29612e-14 9.82314e-13 0 4.71447e-20 9.61272e-28
1955 66 0.0015 0.0137179 -1.87827 0 4.52112e-13 -4.40897e-12 0 5.20104e-21 5.20152e-26
10201 341 0.0015 0.290108 -1.87875 0 -3.71828e-13 3.2842e-12 0 0 2.05573e-26
3533 118 0.0015 0.655738 -1.87902 0 -5.65679e-12 -4.94069e-12 0 0 3.22212e-26
2647 89 0.0015 -0.593237 -1.87778 0 2.96686e-13 1.72562e-13 0 1.06521e-20 3.29544e-27
10294 344 0.0015 -0.470773 -1.87669 0 -2.38764e-12 -2.11932e-13 0 1.68424e-20 2.38876e-27
10293 344 0.0015 -0.467948 -1.87759 0 -1.75833e-12 5.0744e-12 0 3.36849e-20 1.25383e-26
6077 203 0.0015 -0.416475 -1.87683 0 6.76179e-12 3.76718e-12 0 0 5.67489e-27
6076 203 0.0015 -0.414658 -1.87769 0 -1.18825e-11 -8.07423e-12 0 0 1.64311e-26
6034 202 0.0015 -0.327828 -1.87791 0 -4.59512e-13 6.81212e-13 0 2.74394e-21 3.80607e-27
7992 267 0.0015 -0.22046 -1.87668 0 -4.54479e-12 -1.51246e-12 0 1.00459e-20 5.12123e-27
7991 267 0.0015 -0.218134 -1.87756 0 2.64133e-12 9.83828e-13 0 0 1.67324e-27
10267 343 0.0015 0.42201 -1.87716 0 9.17239e-13 4.50239e-12 0 0 1.22188e-26
1479 50 0.0015 0.574675 -1.87722 0 4.12182e-13 3.72618e-13 0 0 4.49732e-27
3532 118 0.0015 0.658275 -1.8771 0 1.67915e-12 1.44519e-12 0 0 2.76887e-27
2648 89 0.0015 -0.596958 -1.87493 0 3.12539e-12 -2.3033e-12 0 2.13042e-20 1.18481e-26
10296 344 0.0015 -0.476421 -1.87487 0 8.15126e-12 -3.92875e-13 0 0 2.74591e-26
10295 344 0.0015 -0.473597 -1.87578 0 -1.6297e-12 -8.54091e-13 0 1.68424e-20 8.87553e-27
6080 203 0.0015 -0.421925 -1.87425 0 2.30607e-13 4.88899e-12 0 0 1.33882e-26
6079 203 0.0015 -0.420108 -1.87511 0 8.93037e-12 -9.38518e-12 0 0 4.43307e-26
6078 203 0.0015 -0.418291 -1.87597 0 -8.50529e-12 5.14575e-12 0 0 3.65267e-26
7995 267 0.0015 -0.227437 -1.87404 0 -3.93145e-12 7.23491e-12 0 2.00918e-20 1.50741e-26
7994 267 0.0015 -0.225111 -1.87492 0 2.12221e-12 -7.22651e-12 0 2.00918e-20 1.23091e-26
7993 267 0.0015 -0.222785 -1.8758 0 3.63989e-12 3.88542e-12 0 1.00459e-20 3.93391e-27
10330 345 0.0015 -0.0666107 -1.87531 0 -7.31877e-13 2.71035e-12 0 3.14298e-20 6.6152e-27
6003 201 0.0015 0.496967 -1.87498 0 -1.67818e-12 -3.94527e-12 0 0 2.40044e-26
1480 50 0.0015 0.576901 -1.87431 0 -8.00419e-14 -1.323e-12 0 0 6.76264e-27
3531 118 0.0015 0.660812 -1.87519 0 2.49969e-12 2.30444e-12 0 0 1.36751e-26
2649 89 0.0015 -0.600679 -1.87207 0 -3.40955e-12 1.89087e-12 0 1.59781e-20 1.17783e-26
10299 344 0.0015 -0.484893 -1.87215 0 3.75206e-13 2.87803e-12 0 0 4.31438e-28
10298 344 0.0015 -0.482069 -1.87306 0 1.89912e-12 -8.81221e-13 0 0 4.2192e-27
10297 344 0.0015 -0.479245 -1.87396 0 -7.43091e-12 6.12692e-13 0 0 2.48443e-26
6082 203 0.0015 -0.425558 -1.87252 0 -7.22095e-12 1.04877e-11 0 2.48474e-20 6.08279e-26
6081 203 0.0015 -0.423741 -1.87338 0 -3.67633e-12 -3.58096e-12 0 0 3.38471e-27
7997 267 0.0015 -0.232089 -1.87228 0 1.67172e-12 -1.53634e-12 0 1.00459e-20 2.18876e-27
7996 267 0.0015 -0.229763 -1.87316 0 -5.70564e-13 -2.31703e-12 0 2.00918e-20 4.93854e-27
10331 345 0.0015 -0.0672875 -1.8722 0 4.88243e-14 1.04726e-12 0 1.57149e-20 1.9023e-26
1956 66 0.0015 0.0132378 -1.87349 0 1.35918e-13 -2.05748e-12 0 0 3.70694e-27
8045 269 0.0015 0.152704 -1.87369 0 -4.24164e-13 3.57127e-12 0 0 1.58236e-26
10202 341 0.0015 0.289307 -1.87202 0 3.53922e-13 -3.16855e-12 0 0 2.05831e-26
4531 152 0.0015 0.366216 -1.8733 0 7.03498e-15 -6.13944e-14 0 0 9.23824e-30
10268 343 0.0015 0.422731 -1.8732 0 -7.65085e-13 -2.58336e-12 0 0 8.36993e-27
3530 118 0.0015 0.66335 -1.87327 0 -3.60504e-12 -4.46262e-12 0 0 1.58869e-26
10301 344 0.0015 -0.490541 -1.87033 0 7.81309e-12 -1.52538e-12 0 1.68424e-20 2.65914e-26
10300 344 0.0015 -0.487717 -1.87124 0 -3.39408e-12 -2.27686e-12 0 1.68424e-20 9.03505e-27
6084 203 0.0015 -0.429191 -1.8708 0 -1.432e-11 5.89448e-12 0 4.96948e-20 9.26311e-26
6083 203 0.0015 -0.427374 -1.87166 0 1.87178e-11 -1.41148e-11 0 4.96948e-20 1.4849e-25
6035 202 0.0015 -0.332631 -1.87017 0 1.57044e-13 -2.32132e-13 0 2.74394e-21 5.5141e-27
7999 267 0.0015 -0.23674 -1.87052 0 -2.34317e-12 1.10696e-12 0 1.00459e-20 3.651e-27
7998 267 0.0015 -0.234415 -1.8714 0 2.27312e-12 5.99439e-13 0 1.00459e-20 3.67893e-27
1481 50 0.0015 0.579128 -1.8714 0 8.5599e-13 2.91358e-12 0 6.81478e-21 5.63161e-27
3529 118 0.0015 0.665887 -1.87136 0 -6.61973e-12 -1.07727e-12 0 0 5.34196e-26
2650 89 0.0015 -0.6044 -1.86922 0 1.79113e-12 -6.16625e-13 0 1.59781e-20 2.14868e-27
10303 344 0.0015 -0.49619 -1.86852 0 5.74343e-12 -3.19515e-12 0 0 2.03391e-26
10302 344 0.0015 -0.493366 -1.86943 0 -8.5211e-12 3.84952e-12 0 1.68424e-20 3.55586e-26
6087 203 0.0015 -0.434641 -1.86821 0 1.61545e-12 2.50253e-11 0 2.48474e-20 2.49155e-26
6085 203 0.0015 -0.431008 -1.86994 0 2.42708e-12 9.22519e-12 0 2.48474e-20 1.70172e-26
6086 203 0.0015 -0.432824 -1.86908 0 7.38246e-13 -2.23107e-11 0 0 2.94346e-26
8001 267 0.0015 -0.241392 -1.86876 0 -7.34988e-12 -1.5987e-12 0 1.00459e-20 1.37501e-26
8000 267 0.0015 -0.239066 -1.86964 0 3.3581e-12 -7.66619e-13 0 1.00459e-20 6.73521e-27
8012 268 0.0015 -0.171924 -1.86923 0 -4.58946e-13 -1.30839e-12 0 1.90242e-21 4.48328e-27
10332 345 0.0015 -0.0679644 -1.86909 0 6.94454e-13 -3.65069e-12 0 0 1.24129e-26
1957 66 0.0015 0.0127576 -1.86871 0 -1.75902e-13 2.47145e-12 0 5.20104e-21 5.71642e-27
10269 343 0.0015 0.423451 -1.86924 0 5.58929e-13 1.51653e-12 0 0 3.04571e-27
1482 50 0.0015 0.581354 -1.86848 0 5.8116e-12 5.32667e-12 0 1.36296e-20 7.05969e-26
3528 118 0.0015 0.668424 -1.86944 0 1.24808e-11 4.75848e-12 0 0 7.51334e-26
2651 89 0.0015 -0.608121 -1.86636 0 -1.88864e-12 1.32176e-12 0 5.32605e-21 3.84536e-27
10305 344 0.0015 -0.501838 -1.8667 0 2.61664e-12 -4.67652e-13 0 0 6.81561e-27
10304 344 0.0015 -0.499014 -1.86761 0 -1.31571e-12 1.10896e-12 0 0 2.78659e-27
6089 203 0.0015 -0.438274 -1.86649 0 -1.54113e-12 -3.28939e-13 0 2.48474e-20 1.12118e-26
6088 203 0.0015 -0.436457 -1.86735 0 1.56816e-12 -1.40794e-11 0 2.48474e-20 1.55068e-26
8004 267 0.0015 -0.248369 -1.86612 0 4.56574e-12 2.52609e-13 0 0 1.43266e-26
8003 267 0.0015 -0.246044 -1.867 0 2.55129e-12 -5.00087e-12 0 1.00459e-20 1.00442e-26
8002 267 0.0015 -0.243718 -1.86788 0 1.39465e-12 5.36977e-12 0 1.00459e-20 1.70341e-26
8046 269 0.0015 0.152008 -1.86695 0 4.84908e-13 -3.95746e-12 0 0 1.7304e-26
6004 201 0.0015 0.499982 -1.86721 0 3.1645e-13 7.23864e-13 0 0 5.13974e-27
3527 118 0.0015 0.670962 -1.86752 0 -6.77634e-12 -1.43092e-12 0 0 2.51165e-26
10307 344 0.0015 -0.507486 -1.86489 0 1.96888e-12 2.25295e-12 0 0 6.535e-28
10306 344 0.0015 -0.504662 -1.8658 0 -3.62919e-12 -6.82698e-13 0 0 6.88994e-27
6090 203 0.0015 -0.440091 -1.86563 0 -1.27496e-12 3.09859e-12 0 0 3.43535e-27
8006 267 0.0015 -0.253021 -1.86436 0 3.14789e-13 -6.03692e-12 0 1.00459e-20 2.59418e-27
8005 267 0.0015 -0.250695 -1.86524 0 -5.50883e-12 3.49478e-12 0 1.00459e-20 1.65984e-26
10333 345 0.0015 -0.0686412 -1.86599 0 -8.05996e-13 2.87056e-12 0 0 8.00468e-27
10203 341 0.0015 0.288506 -1.8653 0 3.94987e-13 -3.61261e-12 0 0 2.33035e-26
4532 152 0.0015 0.364868 -1.86469 0 -4.34818e-14 4.21797e-13 0 0 3.26256e-28
10270 343 0.0015 0.424172 -1.86529 0 -6.24578e-13 -4.02234e-12 0 0 9.57803e-27
1483 50 0.0015 0.58358 -1.86557 0 -4.80359e-12 -4.17647e-12 0 2.04443e-20 7.46687e-26
3526 118 0.0015 0.673499 -1.86561 0 4.72417e-12 6.72653e-13 0 0 9.63921e-27
2652 89 0.0015 -0.611842 -1.86351 0 3.5149e-12 -2.86659e-12 0 1.06521e-20 1.47709e-26
10310 344 0.0015 -0.515959 -1.86217 0 1.2684e-11 -3.5064e-12 0 0 8.26113e-26
10309 344 0.0015 -0.513134 -1.86307 0 -1.74682e-12 1.47401e-12 0 0 1.55943e-26
10308 344 0.0015 -0.51031 -1.86398 0 -3.25226e-12 -1.5001e-12 0 0 3.29976e-27
6036 202 0.0015 -0.337434 -1.86244 0 1.27763e-12 -1.98599e-12 0 2.74394e-21 7.4625e-27
8008 267 0.0015 -0.257673 -1.8626 0 -7.43268e-12 -3.78365e-12 0 0 1.28032e-26
8007 267 0.0015 -0.255347 -1.86348 0 3.42425e-12 6.09514e-12 0 1.00459e-20 2.06382e-27
10334 345 0.0015 -0.0693181 -1.86288 0 1.07643e-12 -3.24046e-12 0 0 8.13447e-27
1958 66 0.0015 0.0122775 -1.86393 0 7.97665e-13 -8.19718e-12 0 1.04021e-20 5.70055e-26
1484 50 0.0015 0.585807 -1.86266 0 -3.3351e-12 -5.17869e-12 0 2.04443e-20 2.12136e-26
3525 118 0.0015 0.676036 -1.86369 0 -4.72417e-12 -6.72653e-13 0 0 9.63921e-27
2653 89 0.0015 -0.615563 -1.86065 0 -2.2007e-12 1.28885e-12 0 1.06521e-20 1.1968e-26
10312 344 0.0015 -0.521607 -1.86035 0 9.87746e-12 -2.22143e-12 0 1.68424e-20 4.71852e-26
10311 344 0.0015 -0.518783 -1.86126 0 -1.55176e-11 4.12986e-12 0 0 1.08269e-25
8010 267 0.0015 -0.262324 -1.86085 0 -1.70118e-12 -1.11507e-12 0 0 9.89202e-28
8009 267 0.0015 -0.259998 -1.86172 0 6.47079e-12 2.45925e-12 0 0 1.19619e-26
8047 269 0.0015 0.151313 -1.86021 0 -3.10712e-13 2.35523e-12 0 0 5.30694e-27
10271 343 0.0015 0.424893 -1.86133 0 1.12147e-13 3.47502e-12 0 0 7.69804e-27
3524 118 0.0015 0.678573 -1.86178 0 6.77634e-12 1.43092e-12 0 0 2.51165e-26
10314 344 0.0015 -0.527255 -1.85854 0 3.9641e-12 1.42429e-12 0 1.68424e-20 5.12801e-27
10313 344 0.0015 -0.524431 -1.85944 0 -5.72358e-12 1.29847e-13 0 1.68424e-20 1.28323e-26
10335 345 0.0015 -0.0699949 -1.85978 0 3.01196e-13 -4.8269e-12 0 0 2.36921e-26
1959 66 0.0015 0.0117974 -1.85915 0 -3.38704e-13 3.57914e-12 0 1.04021e-20 6.0742e-26
4771 160 0.0015 0.0785585 -1.85825 0 -3.84872e-14 1.44822e-12 0 0 5.3643e-27
10204 341 0.0015 0.287705 -1.85857 0 -9.45447e-13 8.5661e-12 0 0 7.22407e-26
6005 201 0.0015 0.502997 -1.85945 0 7.47176e-13 1.88231e-12 0 0 5.60356e-27
1485 50 0.0015 0.588033 -1.85975 0 -7.57801e-13 -1.49724e-12 0 2.04443e-20 5.01057e-26
3523 118 0.0015 0.681111 -1.85986 0 -1.24808e-11 -4.75848e-12 0 0 7.51334e-26
2654 89 0.0015 -0.619284 -1.8578 0 -1.10853e-12 1.8712e-12 0 5.32605e-21 3.42751e-27
10316 344 0.0015 -0.532903 -1.85672 0 -6.82818e-12 2.87351e-12 0 1.68424e-20 3.10814e-26
10315 344 0.0015 -0.530079 -1.85763 0 -5.83959e-13 -2.80203e-12 0 0 2.60888e-27
8013 268 0.0015 -0.167482 -1.85688 0 6.84063e-13 1.92669e-12 0 1.90242e-21 1.11471e-26
10336 345 0.0015 -0.0706718 -1.85667 0 8.07749e-13 1.07774e-12 0 0 3.97695e-26
4533 152 0.0015 0.36352 -1.85607 0 -1.4612e-13 6.0463e-13 0 0 2.65211e-27
10272 343 0.0015 0.425614 -1.85738 0 4.01725e-13 -9.44998e-14 0 0 2.27664e-27
1486 50 0.0015 0.59026 -1.85684 0 7.57801e-13 1.49724e-12 0 2.04443e-20 5.01057e-26
3522 118 0.0015 0.683648 -1.85795 0 6.61973e-12 1.07727e-12 0 0 5.34196e-26
3521 118 0.0015 0.686185 -1.85603 0 3.60504e-12 4.46262e-12 0 0 1.58869e-26
2655 89 0.0015 -0.623004 -1.85494 0 -1.72255e-12 2.4863e-13 0 5.32605e-21 1.54411e-26
10318 344 0.0015 -0.538552 -1.85491 0 -3.5017e-12 -2.00598e-12 0 1.68424e-20 1.45867e-26
10317 344 0.0015 -0.535727 -1.85581 0 1.03776e-11 -3.47016e-13 0 1.68424e-20 4.2691e-26
6037 202 0.0015 -0.342237 -1.85471 0 -8.63763e-13 1.31862e-12 0 0 5.46851e-27
1960 66 0.0015 0.0113172 -1.85437 0 -7.00567e-13 6.29376e-12 0 5.20104e-21 2.75374e-26
3520 118 0.0015 0.688722 -1.85412 0 -2.49969e-12 -2.30444e-12 0 0 1.36751e-26
2656 89 0.0015 -0.626725 -1.85209 0 6.21842e-12 -3.78647e-12 0 1.06521e-20 3.4911e-26
10320 344 0.0015 -0.5442 -1.85309 0 2.36452e-12 -5.39207e-13 0 0 4.81e-27
10319 344 0.0015 -0.541376 -1.854 0 -3.3369e-12 1.71666e-12 0 0 6.17258e-27
10337 345 0.0015 -0.0713486 -1.85356 0 -2.6723e-12 1.02288e-11 0 0 5.10261e-26
8048 269 0.0015 0.150617 -1.85348 0 4.95372e-13 -4.41314e-12 0 0 2.26916e-26
10273 343 0.0015 0.426335 -1.85342 0 -9.19591e-13 -5.22214e-12 0 0 2.1802e-26
1487 50 0.0015 0.592486 -1.85392 0 3.3351e-12 5.17869e-12 0 2.04443e-20 2.12136e-26
3519 118 0.0015 0.69126 -1.8522 0 -1.67915e-12 -1.44519e-12 0 0 2.76887e-27
10338 345 0.0015 -0.0720254 -1.85046 0 2.49015e-12 -1.48048e-11 0 0 1.01913e-25
10205 341 0.0015 0.286904 -1.85184 0 8.13851e-13 -7.36209e-12 0 0 5.89691e-26
6006 201 0.0015 0.506013 -1.85168 0 -7.85025e-13 -2.03584e-12 0 0 6.08322e-27
1488 50 0.0015 0.594712 -1.85101 0 4.80359e-12 4.17647e-12 0 2.04443e-20 7.46687e-26
3518 118 0.0015 0.693797 -1.85028 0 5.65679e-12 4.94069e-12 0 0 3.22212e-26
2657 89 0.0015 -0.630446 -1.84923 0 -5.29821e-12 3.25176e-12 0 1.06521e-20 2.79134e-26
1961 66 0.0015 0.0108371 -1.84959 0 -6.88145e-14 1.62676e-12 0 0 5.63457e-26
4772 160 0.0015 0.0782973 -1.84905 0 1.26947e-13 -4.66142e-12 0 0 3.17728e-26
10274 343 0.0015 0.427056 -1.84946 0 2.24953e-12 1.36087e-11 0 0 1.21246e-25
1489 50 0.0015 0.596939 -1.8481 0 -5.8116e-12 -5.32667e-12 0 1.36296e-20 7.05969e-26
3517 118 0.0015 0.696334 -1.84837 0 -4.71939e-12 -3.39204e-12 0 0 2.96889e-26
2658 89 0.0015 -0.634167 -1.84638 0 2.73799e-12 -1.89362e-12 0 5.32605e-21 7.52795e-27
6038 202 0.0015 -0.34704 -1.84697 0 -2.48278e-13 4.57897e-13 0 0 1.03202e-27
10339 345 0.0015 -0.0727023 -1.84735 0 -1.68658e-12 1.2526e-11 0 1.57149e-20 8.03989e-26
8049 269 0.0015 0.149922 -1.84674 0 -2.81055e-13 2.44157e-12 0 0 2.13452e-26
6541 219 0.0015 0.213251 -1.84656 0 -1.9117e-13 2.79987e-12 0 0 1.55503e-26
4534 152 0.0015 0.362172 -1.84745 0 4.22982e-13 -2.4362e-12 0 0 7.71949e-27
3516 118 0.0015 0.698871 -1.84645 0 -5.55511e-12 -6.46892e-12 0 0 6.14743e-26
8014 268 0.0015 -0.163039 -1.84452 0 -9.3505e-13 -2.60051e-12 0 0 1.47488e-26
10340 345 0.0015 -0.0733791 -1.84424 0 1.39601e-12 -6.79202e-12 0 3.14298e-20 2.15301e-26
1962 66 0.0015 0.010357 -1.84481 0 7.3859e-13 -7.98389e-12 0 1.56031e-20 4.75786e-26
10206 341 0.0015 0.286103 -1.84511 0 5.60907e-14 3.56766e-14 0 0 1.97639e-26
10275 343 0.0015 0.427777 -1.84551 0 -4.20081e-12 -2.36928e-11 0 0 3.37819e-25
1490 50 0.0015 0.599165 -1.84519 0 -8.5599e-13 -2.91358e-12 0 6.81478e-21 5.63161e-27
3515 118 0.0015 0.701409 -1.84454 0 7.6156e-12 9.8796e-12 0 0 7.34813e-26
2659 89 0.0015 -0.637888 -1.84352 0 -8.85032e-13 9.74514e-13 0 0 2.23103e-27
6007 201 0.0015 0.509028 -1.84391 0 4.99167e-13 1.29386e-12 0 0 2.23556e-27
1491 50 0.0015 0.601391 -1.84228 0 8.00419e-14 1.323e-12 0 0 6.76264e-27
3514 118 0.0015 0.703946 -1.84262 0 -2.91295e-12 -6.79566e-12 0 0 1.85987e-26
2660 89 0.0015 -0.641609 -1.84066 0 -2.38467e-13 -1.39613e-13 0 0 1.10239e-29
10341 345 0.0015 -0.074056 -1.84114 0 -3.33833e-12 1.09201e-11 0 3.14298e-20 6.94783e-26
1963 66 0.0015 0.00987681 -1.84004 0 1.09127e-14 7.65273e-16 0 2.08041e-20 1.91971e-26
10276 343 0.0015 0.428498 -1.84155 0 4.20081e-12 2.36928e-11 0 0 3.37819e-25
3513 118 0.0015 0.706483 -1.84071 0 1.72391e-12 4.46248e-12 0 0 8.15973e-27
6039 202 0.0015 -0.351842 -1.83924 0 1.14713e-12 -1.94389e-12 0 0 7.6971e-27
10342 345 0.0015 -0.0747328 -1.83803 0 4.09621e-12 -1.30797e-11 0 1.57149e-20 8.62801e-26
4773 160 0.0015 0.0780361 -1.83985 0 -1.43941e-13 5.1471e-12 0 0 3.59753e-26
8050 269 0.0015 0.149226 -1.84 0 -3.23275e-13 3.584e-12 0 3.6872e-21 1.58563e-26
6542 219 0.0015 0.21269 -1.83947 0 1.80509e-13 -3.32946e-12 0 3.51396e-21 1.60989e-26
10207 341 0.0015 0.285302 -1.83839 0 -5.59694e-13 4.38961e-12 0 0 1.84399e-26
4535 152 0.0015 0.360823 -1.83883 0 -4.96514e-13 3.16848e-12 0 0 1.25241e-26
1492 50 0.0015 0.603618 -1.83936 0 -4.12182e-13 -3.72618e-13 0 0 4.49732e-27
3512 118 0.0015 0.70902 -1.83879 0 1.62614e-12 1.12928e-13 0 0 7.99841e-27
2661 89 0.0015 -0.64533 -1.83781 0 1.8227e-12 -1.10781e-12 0 0 5.37637e-27
10277 343 0.0015 0.429219 -1.8376 0 -2.24953e-12 -1.36087e-11 0 0 1.21246e-25
6008 201 0.0015 0.512043 -1.83614 0 -5.05419e-13 -1.11216e-12 0 0 1.72837e-27
1493 50 0.0015 0.605844 -1.83645 0 2.33424e-12 1.1725e-12 0 0 3.44671e-27
3511 118 0.0015 0.711558 -1.83688 0 -2.21731e-12 -1.54151e-12 0 0 6.43024e-27
2662 89 0.0015 -0.649051 -1.83495 0 -3.50215e-12 2.44058e-12 0 5.32605e-21 1.18722e-26
10343 345 0.0015 -0.0754097 -1.83493 0 -1.64945e-12 2.75361e-12 0 0 2.96269e-26
1964 66 0.0015 0.00939668 -1.83526 0 -3.37464e-13 3.4765e-12 0 2.08041e-20 1.04759e-26
2663 89 0.0015 -0.652772 -1.8321 0 1.07717e-12 -6.402e-13 0 1.06521e-20 7.78472e-27
10171 340 0.0015 -0.234195 -1.83312 0 1.20709e-12 -1.72636e-12 0 6.39056e-21 9.63606e-27
8015 268 0.0015 -0.158597 -1.83216 0 -5.24025e-15 -2.83107e-14 0 0 8.20443e-27
8051 269 0.0015 0.14853 -1.83326 0 2.01692e-13 -2.49239e-12 0 3.6872e-21 1.47731e-26
6543 219 0.0015 0.212128 -1.83239 0 6.27472e-14 3.12195e-13 0 3.51396e-21 6.44913e-28
10278 343 0.0015 0.429939 -1.83364 0 9.19591e-13 5.22214e-12 0 0 2.1802e-26
1494 50 0.0015 0.60807 -1.83354 0 -1.71944e-12 -2.80911e-14 0 6.81478e-21 5.9287e-28
6040 202 0.0015 -0.356645 -1.83151 0 -9.45071e-13 1.59375e-12 0 0 6.82378e-27
10344 345 0.0015 -0.0760865 -1.83182 0 -5.44938e-13 6.26534e-12 0 0 1.84172e-26
1965 66 0.0015 0.00891654 -1.83048 0 2.76968e-13 -2.83326e-12 0 5.20104e-21 6.40856e-27
4774 160 0.0015 0.0777749 -1.83066 0 4.8356e-14 -1.76164e-12 0 2.71488e-21 9.64268e-27
10208 341 0.0015 0.284501 -1.83166 0 2.94382e-13 -2.62955e-12 0 0 9.14884e-27
4536 152 0.0015 0.359475 -1.83021 0 7.0492e-13 -4.59085e-12 0 0 2.79161e-26
1495 50 0.0015 0.610297 -1.83063 0 6.97045e-13 -5.41368e-13 0 1.36296e-20 4.21107e-28
2664 89 0.0015 -0.656493 -1.82924 0 2.13227e-12 -2.13508e-12 0 1.06521e-20 6.49426e-27
10345 345 0.0015 -0.0767633 -1.82871 0 5.3434e-13 -4.28095e-12 0 1.57149e-20 1.39211e-26
10279 343 0.0015 0.43066 -1.82968 0 -4.01725e-13 9.44998e-14 0 0 2.27664e-27
6009 201 0.0015 0.515058 -1.82837 0 9.95848e-13 2.1604e-12 0 0 8.27676e-27
2665 89 0.0015 -0.660213 -1.82639 0 -1.57515e-12 2.10517e-12 0 5.32605e-21 5.58247e-27
10172 340 0.0015 -0.238704 -1.82673 0 -2.88873e-12 4.19527e-12 0 6.39056e-21 2.90088e-26
8052 269 0.0015 0.147835 -1.82652 0 2.1044e-13 -1.69904e-12 0 3.6872e-21 3.97403e-27
1496 50 0.0015 0.612523 -1.82772 0 -1.28019e-12 -6.451e-13 0 1.36296e-20 3.32516e-27
10346 345 0.0015 -0.0774402 -1.82561 0 -2.89086e-13 -8.72591e-13 0 3.14298e-20 1.23388e-27
1966 66 0.0015 0.0084364 -1.8257 0 -5.79928e-13 6.02588e-12 0 0 2.70638e-26
6544 219 0.0015 0.211567 -1.8253 0 2.45188e-14 -8.6256e-13 0 3.51396e-21 2.41077e-27
10209 341 0.0015 0.2837 -1.82493 0 -3.34575e-14 5.14944e-13 0 0 4.67283e-28
10280 343 0.0015 0.431381 -1.82573 0 -1.12147e-13 -3.47502e-12 0 0 7.69804e-27
1497 50 0.0015 0.614749 -1.8248 0 2.32004e-12 2.13783e-12 0 6.81478e-21 4.99294e-27
2666 89 0.0015 -0.663934 -1.82353 0 -2.25742e-12 1.02084e-12 0 0 1.16477e-26
6041 202 0.0015 -0.361448 -1.82377 0 -5.24644e-14 7.48181e-14 0 0 3.81862e-28
10347 345 0.0015 -0.078117 -1.8225 0 1.04591e-12 2.16233e-13 0 3.14298e-20 2.28555e-27
2667 89 0.0015 -0.667655 -1.82068 0 5.34205e-12 -3.78243e-12 0 0 2.81479e-26
10173 340 0.0015 -0.243212 -1.82034 0 3.12922e-12 -4.62856e-12 0 6.39056e-21 3.40433e-26
1967 66 0.0015 0.00795626 -1.82092 0 2.10838e-13 -2.60646e-12 0 5.20104e-21 2.41568e-26
4775 160 0.0015 0.0775136 -1.82146 0 2.09575e-14 -4.43469e-13 0 2.71488e-21 2.64343e-28
4537 152 0.0015 0.358127 -1.82159 0 -4.35423e-13 2.77408e-12 0 5.72705e-21 2.08114e-26
10281 343 0.0015 0.432102 -1.82177 0 6.24578e-13 4.02234e-12 0 0 9.57803e-27
6010 201 0.0015 0.518074 -1.8206 0 -1.01745e-12 -2.27762e-12 0 0 8.61858e-27
1498 50 0.0015 0.616976 -1.82189 0 2.33486e-13 1.37551e-13 0 0 4.52212e-27
8016 268 0.0015 -0.154154 -1.81981 0 7.51599e-13 2.09447e-12 0 1.90242e-21 9.04092e-27
10348 345 0.0015 -0.0787939 -1.81939 0 -1.09482e-12 2.37428e-12 0 1.57149e-20 2.90912e-27
8053 269 0.0015 0.147139 -1.81978 0 -3.59721e-13 3.34021e-12 0 0 1.08649e-26
6545 219 0.0015 0.211005 -1.81821 0 -2.97913e-13 3.61835e-12 0 0 1.51341e-26
10210 341 0.0015 0.282899 -1.8182 0 -2.62129e-13 2.16878e-12 0 0 9.1241e-27
1499 50 0.0015 0.619202 -1.81898 0 -3.55105e-13 6.76274e-13 0 0 6.44124e-27
2668 89 0.0015 -0.671376 -1.81782 0 -5.76776e-12 3.9691e-12 0 1.59781e-20 3.18743e-26
6042 202 0.0015 -0.366251 -1.81604 0 5.14848e-13 -8.10974e-13 0 0 1.30213e-27
10349 345 0.0015 -0.0794707 -1.81629 0 3.73838e-13 -2.63178e-12 0 0 3.11569e-27
1968 66 0.0015 0.00747613 -1.81614 0 1.04669e-12 -1.02155e-11 0 1.04021e-20 1.075e-25
10282 343 0.0015 0.432823 -1.81781 0 -5.58929e-13 -1.51653e-12 0 0 3.04571e-27
1500 50 0.0015 0.621428 -1.81607 0 -8.85595e-13 -1.75487e-12 0 0 3.80056e-27
2669 89 0.0015 -0.675097 -1.81497 0 5.39164e-12 -3.51354e-12 0 1.59781e-20 2.69086e-26
5941 199 0.0015 0.740778 -1.81551 0 -8.69071e-13 -3.47173e-12 0 0 3.41748e-26
2670 89 0.0015 -0.678818 -1.81211 0 -2.52784e-12 1.67045e-12 0 1.59781e-20 1.19009e-26
10174 340 0.0015 -0.24772 -1.81396 0 -2.53445e-12 3.72961e-12 0 0 2.25877e-26
10350 345 0.0015 -0.0801475 -1.81318 0 -7.60539e-14 1.25392e-12 0 0 1.36082e-27
4776 160 0.0015 0.0772524 -1.81226 0 -6.17218e-14 1.83425e-12 0 2.71488e-21 6.43847e-27
8054 269 0.0015 0.146443 -1.81304 0 4.99343e-13 -4.71435e-12 0 0 2.18605e-26
4538 152 0.0015 0.356779 -1.81297 0 -2.05239e-14 2.67418e-13 0 5.72705e-21 8.75174e-29
10283 343 0.0015 0.433544 -1.81386 0 7.65085e-13 2.58336e-12 0 0 8.36993e-27
6011 201 0.0015 0.521089 -1.81283 0 -6.36014e-13 -1.71965e-12 0 0 1.58263e-26
1969 66 0.0015 0.00699599 -1.81136 0 -1.45058e-12 1.46855e-11 0 1.04021e-20 1.51171e-25
6546 219 0.0015 0.210443 -1.81113 0 5.59493e-13 -6.43522e-12 0 3.51396e-21 4.30296e-26
10211 341 0.0015 0.282098 -1.81148 0 3.68962e-13 -2.92412e-12 0 0 1.01691e-26
6043 202 0.0015 -0.371054 -1.8083 0 -4.6286e-13 6.98708e-13 0 0 1.14365e-27
10284 343 0.0015 0.434265 -1.8099 0 -9.17239e-13 -4.50239e-12 0 0 1.22188e-26
10175 340 0.0015 -0.252228 -1.80757 0 1.78535e-12 -2.52916e-12 0 0 1.0974e-26
8017 268 0.0015 -0.149712 -1.80745 0 -2.65646e-13 -7.14923e-13 0 3.80484e-21 5.37782e-27
1970 66 0.0015 0.00651585 -1.80658 0 6.93078e-13 -6.89991e-12 0 5.20104e-21 4.77505e-26
8055 269 0.0015 0.145748 -1.8063 0 -5.02721e-13 4.7381e-12 0 0 2.20361e-26
5942 199 0.0015 0.743061 -1.80618 0 1.07959e-12 4.14911e-12 0 0 3.55122e-26
6547 219 0.0015 0.209882 -1.80404 0 -6.22432e-13 7.12146e-12 0 1.05419e-20 5.0901e-26
10212 341 0.0015 0.281297 -1.80475 0 -1.98683e-13 9.96447e-13 0 0 1.1803e-27
4539 152 0.0015 0.35543 -1.80435 0 -1.41926e-13 6.19967e-13 0 5.72705e-21 1.53344e-27
10285 343 0.0015 0.434986 -1.80595 0 1.78992e-13 1.73811e-12 0 1.24237e-20 3.86748e-27