ITEM: TIMESTEP
7740
ITEM: NUMBER OF ATOMS
10500
ITEM: BOX BOUNDS pp pp pp
-1.0249999999999999e+00 1.0249999999999999e+00
-2.0000000000000000e+00 2.0000000000000000e+00
-5.0000000000000003e-02 5.0000000000000003e-02
ITEM: ATOMS id type radius x y z fx fy fz c_bendingE c_stretchingE
10321 345 0.0015 -0.0605191 -1.90326 0 2.18e-13 -9.33485e-13 0 0 8.11297e-28
6031 202 0.0015 -0.31342 -1.90111 0 5.54567e-13 -8.9209e-13 0 0 2.79021e-27
10322 345 0.0015 -0.061196 -1.90016 0 -6.21624e-13 2.67279e-12 0 0 3.62618e-27
8041 269 0.0015 0.155487 -1.90065 0 8.71938e-14 -7.90511e-13 0 0 1.19025e-27
10261 343 0.0015 0.417684 -1.90089 0 -5.827e-14 -4.67276e-13 0 0 2.46922e-28
1471 50 0.0015 0.556864 -1.90052 0 1.55581e-14 1.44996e-14 0 6.81478e-21 4.48037e-31
10323 345 0.0015 -0.0618728 -1.89705 0 4.40759e-13 -2.04036e-12 0 1.57149e-20 2.89543e-27
1951 66 0.0015 0.0156385 -1.89738 0 3.9903e-14 -5.42396e-13 0 0 3.94341e-28
10262 343 0.0015 0.418405 -1.89694 0 -2.46792e-14 1.55646e-13 0 0 3.62356e-28
1472 50 0.0015 0.559091 -1.8976 0 5.51209e-13 8.13179e-13 0 6.81478e-21 1.02227e-27
2641 89 0.0015 -0.570912 -1.89491 0 4.54299e-13 -3.41073e-13 0 0 4.20405e-28
1473 50 0.0015 0.561317 -1.89469 0 -1.51228e-12 -2.31999e-12 0 6.81478e-21 4.17516e-27
2642 89 0.0015 -0.574633 -1.89206 0 8.73662e-13 -6.7056e-13 0 0 4.05116e-27
6032 202 0.0015 -0.318223 -1.89337 0 -1.10682e-12 1.78441e-12 0 0 5.57496e-27
10324 345 0.0015 -0.0625496 -1.89394 0 1.99774e-13 -3.32945e-13 0 3.14298e-20 4.76795e-28
1952 66 0.0015 0.0151583 -1.8926 0 -1.48096e-13 1.83131e-12 0 0 2.62575e-27
8042 269 0.0015 0.154791 -1.89391 0 -2.24058e-13 2.03936e-12 0 0 4.1604e-27
10263 343 0.0015 0.419126 -1.89298 0 -1.93928e-13 -1.14838e-12 0 1.24237e-20 2.58205e-27
3540 118 0.0015 0.637977 -1.89243 0 -2.31163e-12 -1.75175e-12 0 0 7.4288e-27
6061 203 0.0015 -0.387409 -1.89062 0 -3.95597e-13 4.7141e-13 0 0 1.74811e-28
10325 345 0.0015 -0.0632265 -1.89084 0 7.25575e-14 -1.12408e-12 0 4.71447e-20 3.2057e-27
10231 342 0.0015 0.215 -1.89 0 8.99744e-13 0 0 0 1.54931e-28
10232 342 0.0015 0.21569 -1.89 0 -1.81172e-12 0 0 0 3.14182e-28
10233 342 0.0015 0.216379 -1.89 0 1.08752e-12 0 0 0 1.6511e-28
10234 342 0.0015 0.217069 -1.89 0 -2.54213e-13 0 0 0 7.04434e-30
10235 342 0.0015 0.217759 -1.89 0 3.61988e-13 0 0 0 1.65872e-29
10236 342 0.0015 0.218448 -1.89 0 -8.33306e-13 0 0 0 7.32551e-29
10237 342 0.0015 0.219138 -1.89 0 7.60864e-13 0 0 0 6.63906e-29
10238 342 0.0015 0.219828 -1.89 0 1.24231e-19 0 0 0 1.70741e-29
10239 342 0.0015 0.220517 -1.89 0 -5.43315e-13 0 0 0 2.96801e-29
10240 342 0.0015 0.221207 -1.89 0 3.6221e-13 0 0 0 2.13154e-29
10241 342 0.0015 0.221897 -1.89 0 3.64432e-14 0 0 0 1.01233e-30
10242 342 0.0015 0.222586 -1.89 0 1.81105e-13 0 0 0 1.2558e-29
10243 342 0.0015 0.223276 -1.89 0 -6.88422e-13 0 0 0 4.89543e-29
10244 342 0.0015 0.223966 -1.89 0 1.23107e-12 0 0 0 1.56989e-28
10245 342 0.0015 0.224655 -1.89 0 -2.06393e-12 0 0 0 4.30668e-28
10246 342 0.0015 0.225345 -1.89 0 2.06393e-12 0 0 0 4.30668e-28
10247 342 0.0015 0.226034 -1.89 0 -1.23107e-12 0 0 0 1.56989e-28
10248 342 0.0015 0.226724 -1.89 0 6.88422e-13 0 0 0 4.89543e-29
10249 342 0.0015 0.227414 -1.89 0 -1.81105e-13 0 0 0 1.2558e-29
10250 342 0.0015 0.228103 -1.89 0 -3.64432e-14 0 0 0 1.01233e-30
10251 342 0.0015 0.228793 -1.89 0 -3.6221e-13 0 0 0 2.13154e-29
10252 342 0.0015 0.229483 -1.89 0 5.43315e-13 0 0 0 2.96801e-29
10253 342 0.0015 0.230172 -1.89 0 -1.24231e-19 0 0 0 1.70741e-29
10254 342 0.0015 0.230862 -1.89 0 -7.60864e-13 0 0 0 6.63906e-29
10255 342 0.0015 0.231552 -1.89 0 8.33306e-13 0 0 0 7.32551e-29
10256 342 0.0015 0.232241 -1.89 0 -3.61988e-13 0 0 0 1.65872e-29
10257 342 0.0015 0.232931 -1.89 0 2.54213e-13 0 0 0 7.04434e-30
10258 342 0.0015 0.233621 -1.89 0 -1.08752e-12 0 0 0 1.6511e-28
10259 342 0.0015 0.23431 -1.89 0 1.81172e-12 0 0 0 3.14182e-28
10260 342 0.0015 0.235 -1.89 0 -8.99744e-13 0 0 0 1.54931e-28
6001 201 0.0015 0.490936 -1.89052 0 -1.04214e-13 -2.45331e-13 0 0 1.64299e-28
1474 50 0.0015 0.563543 -1.89178 0 9.26271e-13 1.86383e-12 0 0 3.23514e-27
3539 118 0.0015 0.640514 -1.89051 0 2.92328e-12 2.03312e-12 0 0 7.81079e-27
2643 89 0.0015 -0.578354 -1.8892 0 -2.31776e-12 1.74682e-12 0 0 5.61082e-27
6063 203 0.0015 -0.391043 -1.8889 0 1.20167e-12 1.71675e-12 0 0 6.56801e-28
6064 203 0.0015 -0.392859 -1.88804 0 1.81161e-12 -1.2325e-12 0 0 1.60047e-27
6062 203 0.0015 -0.389226 -1.88976 0 -8.66185e-13 -9.81157e-13 0 0 6.49075e-28
10264 343 0.0015 0.419847 -1.88903 0 3.76475e-13 1.97364e-12 0 2.48474e-20 2.77234e-27
1475 50 0.0015 0.56577 -1.88887 0 2.87038e-13 -4.04157e-13 0 0 1.00842e-28
3538 118 0.0015 0.643052 -1.8886 0 -4.15141e-14 4.82897e-13 0 0 1.12218e-27
2644 89 0.0015 -0.582074 -1.88635 0 1.0607e-12 -8.11453e-13 0 0 1.99381e-27
6066 203 0.0015 -0.396492 -1.88631 0 1.42739e-12 1.86213e-12 0 0 4.29485e-27
6065 203 0.0015 -0.394676 -1.88717 0 -4.53095e-12 -7.21321e-13 0 0 4.09919e-27
7981 267 0.0015 -0.194876 -1.88635 0 -5.00498e-13 -9.0846e-13 0 0 1.48779e-29
10326 345 0.0015 -0.0639033 -1.88773 0 -1.58387e-13 9.79736e-13 0 3.14298e-20 3.36427e-27
1953 66 0.0015 0.0146782 -1.88782 0 2.67664e-13 -2.89432e-12 0 5.20104e-21 5.7038e-27
8043 269 0.0015 0.154095 -1.88717 0 2.07211e-13 -1.9014e-12 0 0 3.7808e-27
3537 118 0.0015 0.645589 -1.88668 0 -8.70468e-13 -1.08799e-12 0 0 9.07087e-28
6068 203 0.0015 -0.400126 -1.88459 0 -1.12067e-12 -1.28513e-12 0 0 2.85064e-27
6067 203 0.0015 -0.398309 -1.88545 0 3.39235e-12 -1.04121e-12 0 0 3.44646e-27
6033 202 0.0015 -0.323025 -1.88564 0 8.03608e-13 -1.30935e-12 0 0 3.3842e-27
7983 267 0.0015 -0.199527 -1.8846 0 -3.25372e-13 -1.38615e-12 0 2.00918e-20 1.7518e-29
7982 267 0.0015 -0.197202 -1.88548 0 9.47392e-13 2.1735e-12 0 1.00459e-20 1.54794e-29
10327 345 0.0015 -0.0645802 -1.88463 0 -6.17776e-13 3.19574e-12 0 1.57149e-20 5.9048e-27
10265 343 0.0015 0.420568 -1.88507 0 2.01225e-13 9.5505e-13 0 3.72711e-20 2.81506e-27
1476 50 0.0015 0.567996 -1.88596 0 -3.53912e-13 2.22716e-13 0 0 2.89539e-29
3536 118 0.0015 0.648126 -1.88476 0 7.81159e-13 3.18885e-13 0 0 2.94987e-28
2645 89 0.0015 -0.585795 -1.88349 0 -3.0517e-13 3.43492e-13 0 0 1.71991e-28
6071 203 0.0015 -0.405575 -1.882 0 -4.36289e-13 1.40274e-12 0 0 1.82969e-27
6070 203 0.0015 -0.403759 -1.88287 0 -6.71008e-13 -8.36987e-13 0 0 3.64428e-28
6069 203 0.0015 -0.401942 -1.88373 0 -1.15082e-12 1.73574e-12 0 0 1.12291e-27
7985 267 0.0015 -0.204179 -1.88284 0 4.50989e-13 2.61696e-12 0 1.00459e-20 8.91382e-29
7984 267 0.0015 -0.201853 -1.88372 0 -1.69639e-13 -8.1026e-13 0 2.00918e-20 7.27938e-29
1954 66 0.0015 0.0141981 -1.88304 0 -2.8916e-13 2.80198e-12 0 5.20104e-21 5.40494e-27
6002 201 0.0015 0.493952 -1.88275 0 4.28249e-13 1.01248e-12 0 0 1.76824e-27
1477 50 0.0015 0.570222 -1.88304 0 2.81877e-13 -3.7593e-13 0 0 1.07623e-29
3535 118 0.0015 0.650663 -1.88285 0 -4.91523e-13 7.52324e-13 0 0 3.00499e-28
2646 89 0.0015 -0.589516 -1.88064 0 -8.12498e-15 -2.02263e-13 0 0 2.28284e-28
6073 203 0.0015 -0.409209 -1.88028 0 -1.89897e-12 -1.04574e-12 0 0 2.3193e-27
6072 203 0.0015 -0.407392 -1.88114 0 3.35158e-12 -1.34502e-12 0 0 3.64611e-27
7988 267 0.0015 -0.211156 -1.8802 0 -1.81138e-13 -2.29469e-12 0 0 2.18454e-28
7987 267 0.0015 -0.208831 -1.88108 0 1.19309e-13 3.729e-12 0 0 5.06792e-28
7986 267 0.0015 -0.206505 -1.88196 0 -5.15213e-13 -3.8254e-12 0 0 3.26785e-28
8011 268 0.0015 -0.176367 -1.88159 0 -1.36836e-13 -3.8116e-13 0 0 5.982e-28
10328 345 0.0015 -0.065257 -1.88152 0 2.33506e-13 -1.44667e-12 0 0 6.22982e-27
8044 269 0.0015 0.1534 -1.88043 0 -1.15848e-13 1.09499e-12 0 0 1.18291e-27
10266 343 0.0015 0.421289 -1.88111 0 -5.10696e-13 -2.38309e-12 0 2.48474e-20 3.49051e-27
1478 50 0.0015 0.572449 -1.88013 0 -6.04812e-13 2.52646e-13 0 0 3.97151e-29
3534 118 0.0015 0.653201 -1.88093 0 4.40585e-13 -1.31775e-12 0 0 1.72415e-28
10292 344 0.0015 -0.465124 -1.8785 0 1.25568e-12 -2.32481e-13 0 0 1.46e-27
10291 344 0.0015 -0.4623 -1.87941 0 -1.23776e-12 4.94307e-13 0 0 1.45673e-27
6074 203 0.0015 -0.411025 -1.87942 0 1.44625e-12 1.04491e-12 0 2.48474e-20 1.53261e-27
6075 203 0.0015 -0.412842 -1.87856 0 -2.82219e-12 1.49727e-12 0 4.96948e-20 2.85106e-27
7990 267 0.0015 -0.215808 -1.87844 0 1.69332e-12 -1.12287e-13 0 2.00918e-20 9.80532e-28
7989 267 0.0015 -0.213482 -1.87932 0 -7.8161e-13 1.1105e-12 0 1.00459e-20 7.48306e-28
10329 345 0.0015 -0.0659339 -1.87841 0 6.50843e-13 -2.99949e-12 0 0 4.66809e-27
1955 66 0.0015 0.0137179 -1.87827 0 2.3997e-13 -2.21755e-12 0 1.04021e-20 3.33937e-27
10201 341 0.0015 0.290108 -1.87875 0 -1.41051e-13 1.1986e-12 0 3.6872e-21 2.74102e-27
3533 118 0.0015 0.655738 -1.87902 0 -1.22579e-12 8.56722e-13 0 0 1.88988e-28
2647 89 0.0015 -0.593237 -1.87778 0 -1.14309e-13 2.9831e-13 0 0 4.01158e-28
10294 344 0.0015 -0.470773 -1.87669 0 -2.78393e-12 2.32654e-12 0 0 5.19512e-27
10293 344 0.0015 -0.467948 -1.87759 0 1.89548e-12 -1.66991e-12 0 0 4.18361e-27
6077 203 0.0015 -0.416475 -1.87683 0 1.07898e-12 1.32905e-12 0 2.48474e-20 5.65485e-29
6076 203 0.0015 -0.414658 -1.87769 0 7.64998e-13 -2.04493e-12 0 4.96948e-20 1.56815e-27
6034 202 0.0015 -0.327828 -1.87791 0 -1.38155e-13 2.58805e-13 0 0 6.94759e-28
7992 267 0.0015 -0.22046 -1.87668 0 -1.84946e-14 3.26889e-13 0 2.00918e-20 7.35279e-30
7991 267 0.0015 -0.218134 -1.87756 0 -8.00491e-13 -7.32126e-13 0 3.01377e-20 2.43848e-28
10267 343 0.0015 0.42201 -1.87716 0 2.77792e-13 1.4427e-12 0 1.24237e-20 1.29719e-27
1479 50 0.0015 0.574675 -1.87722 0 1.41871e-12 8.61398e-13 0 0 1.89623e-27
3532 118 0.0015 0.658275 -1.8771 0 7.13682e-13 -9.90547e-13 0 0 4.00901e-28
2648 89 0.0015 -0.596958 -1.87493 0 1.57162e-12 -1.3221e-12 0 5.32605e-21 3.45127e-27
10296 344 0.0015 -0.476421 -1.87487 0 3.41476e-13 3.13929e-13 0 0 1.75524e-28
10295 344 0.0015 -0.473597 -1.87578 0 9.78385e-13 -1.20737e-12 0 0 1.04486e-27
6080 203 0.0015 -0.421925 -1.87425 0 -2.95005e-13 2.76256e-12 0 2.48474e-20 6.44273e-28
6079 203 0.0015 -0.420108 -1.87511 0 7.83333e-13 -8.19842e-13 0 2.48474e-20 5.11104e-28
6078 203 0.0015 -0.418291 -1.87597 0 -7.70749e-13 -6.69921e-13 0 2.48474e-20 5.70342e-29
7995 267 0.0015 -0.227437 -1.87404 0 -2.40495e-13 -5.71826e-13 0 1.00459e-20 3.33206e-28
7994 267 0.0015 -0.225111 -1.87492 0 7.4987e-13 -4.89458e-15 0 1.00459e-20 2.02108e-28
7993 267 0.0015 -0.222785 -1.8758 0 -7.61823e-14 2.633e-13 0 2.00918e-20 2.87554e-29
10330 345 0.0015 -0.0666107 -1.87531 0 -5.73449e-13 2.85126e-12 0 0 4.40668e-27
6003 201 0.0015 0.496967 -1.87498 0 -5.4499e-13 -1.26502e-12 0 0 2.28915e-27
1480 50 0.0015 0.576901 -1.87431 0 -1.74437e-12 -1.78003e-12 0 6.81478e-21 3.14133e-27
3531 118 0.0015 0.660812 -1.87519 0 3.32743e-13 1.30305e-12 0 1.57149e-20 4.89669e-28
2649 89 0.0015 -0.600679 -1.87207 0 -1.72526e-12 1.33623e-12 0 5.32605e-21 3.64486e-27
10299 344 0.0015 -0.484893 -1.87215 0 -9.75466e-13 -2.12208e-13 0 3.36849e-20 4.16201e-28
10298 344 0.0015 -0.482069 -1.87306 0 3.60307e-14 4.11543e-13 0 1.68424e-20 8.3793e-29
10297 344 0.0015 -0.479245 -1.87396 0 -2.55079e-13 -2.91945e-13 0 0 2.04004e-28
6082 203 0.0015 -0.425558 -1.87252 0 8.59636e-13 1.17466e-12 0 0 2.45329e-29
6081 203 0.0015 -0.423741 -1.87338 0 -1.17029e-12 -3.4495e-12 0 0 1.43255e-28
7997 267 0.0015 -0.232089 -1.87228 0 4.77378e-14 2.08295e-13 0 0 2.22572e-28
7996 267 0.0015 -0.229763 -1.87316 0 -7.1589e-13 5.56033e-13 0 0 2.62177e-28
10331 345 0.0015 -0.0672875 -1.8722 0 1.88179e-15 -1.14963e-13 0 0 1.08144e-27
1956 66 0.0015 0.0132378 -1.87349 0 -3.80869e-13 3.66979e-12 0 5.20104e-21 1.08651e-26
8045 269 0.0015 0.152704 -1.87369 0 9.70031e-14 -9.68696e-13 0 0 8.9844e-28
10202 341 0.0015 0.289307 -1.87202 0 2.46297e-13 -2.14246e-12 0 7.37441e-21 4.4383e-27
4531 152 0.0015 0.366216 -1.8733 0 -7.97035e-14 5.12492e-13 0 0 6.5185e-28
10268 343 0.0015 0.422731 -1.8732 0 -1.68315e-13 -1.5479e-12 0 2.48474e-20 1.48064e-27
3530 118 0.0015 0.66335 -1.87327 0 1.61423e-12 2.91845e-13 0 1.57149e-20 3.89905e-27
10301 344 0.0015 -0.490541 -1.87033 0 -3.00394e-12 9.99552e-13 0 1.68424e-20 4.74328e-27
10300 344 0.0015 -0.487717 -1.87124 0 1.71125e-12 -1.0398e-13 0 3.36849e-20 1.16986e-27
6084 203 0.0015 -0.429191 -1.8708 0 -3.99586e-12 -2.30487e-12 0 4.96948e-20 2.58792e-27
6083 203 0.0015 -0.427374 -1.87166 0 1.47484e-12 2.30674e-12 0 2.48474e-20 1.82652e-28
6035 202 0.0015 -0.332631 -1.87017 0 -7.78341e-14 7.46078e-14 0 0 1.15649e-28
7999 267 0.0015 -0.23674 -1.87052 0 3.29032e-12 -1.16019e-12 0 1.00459e-20 4.88216e-27
7998 267 0.0015 -0.234415 -1.8714 0 -7.4352e-13 -1.95036e-13 0 1.00459e-20 8.69441e-28
1481 50 0.0015 0.579128 -1.8714 0 8.33102e-13 8.47889e-13 0 6.81478e-21 1.28724e-27
3529 118 0.0015 0.665887 -1.87136 0 -3.50114e-12 -1.52054e-12 0 1.57149e-20 6.12986e-27
2650 89 0.0015 -0.6044 -1.86922 0 9.87025e-13 -6.66893e-13 0 5.32605e-21 9.25168e-28
10303 344 0.0015 -0.49619 -1.86852 0 -1.95477e-12 1.45575e-12 0 0 2.54061e-27
10302 344 0.0015 -0.493366 -1.86943 0 3.45546e-12 -1.69044e-12 0 0 6.10939e-27
6087 203 0.0015 -0.434641 -1.86821 0 3.06544e-12 1.45009e-12 0 0 3.44122e-27
6085 203 0.0015 -0.431008 -1.86994 0 5.46869e-12 2.40969e-13 0 4.96948e-20 6.65999e-27
6086 203 0.0015 -0.432824 -1.86908 0 -5.86776e-12 -2.00367e-13 0 2.48474e-20 7.61973e-27
8001 267 0.0015 -0.241392 -1.86876 0 4.98033e-13 8.52579e-13 0 0 1.13192e-27
8000 267 0.0015 -0.239066 -1.86964 0 -3.14603e-12 1.37631e-12 0 1.00459e-20 4.80024e-27
8012 268 0.0015 -0.171924 -1.86923 0 3.22442e-13 8.98557e-13 0 0 1.70026e-27
10332 345 0.0015 -0.0679644 -1.86909 0 1.33709e-13 -6.12302e-13 0 0 4.71413e-28
1957 66 0.0015 0.0127576 -1.86871 0 4.06424e-13 -3.99801e-12 0 1.04021e-20 1.19115e-26
10269 343 0.0015 0.423451 -1.86924 0 2.05621e-13 1.79641e-12 0 2.48474e-20 1.84961e-27
1482 50 0.0015 0.581354 -1.86848 0 -6.36014e-13 -4.54796e-13 0 1.36296e-20 4.89381e-28
3528 118 0.0015 0.668424 -1.86944 0 2.75496e-12 1.05023e-12 0 0 3.66852e-27
2651 89 0.0015 -0.608121 -1.86636 0 -5.17145e-13 2.52889e-13 0 5.32605e-21 4.00572e-28
10305 344 0.0015 -0.501838 -1.8667 0 8.09508e-13 -3.10464e-13 0 1.68424e-20 3.09013e-28
10304 344 0.0015 -0.499014 -1.86761 0 9.84992e-14 -5.01809e-13 0 0 5.59267e-28
6089 203 0.0015 -0.438274 -1.86649 0 -2.16346e-12 -3.93131e-13 0 2.48474e-20 8.94126e-28
6088 203 0.0015 -0.436457 -1.86735 0 9.8481e-13 -8.66648e-13 0 2.48474e-20 5.55967e-28
8004 267 0.0015 -0.248369 -1.86612 0 -1.32559e-12 3.04478e-13 0 0 7.34809e-28
8003 267 0.0015 -0.246044 -1.867 0 2.96466e-13 1.28354e-12 0 0 3.33047e-28
8002 267 0.0015 -0.243718 -1.86788 0 5.68225e-13 -2.42899e-12 0 0 6.89212e-28
8046 269 0.0015 0.152008 -1.86695 0 -3.30597e-14 4.01092e-13 0 0 5.56235e-28
6004 201 0.0015 0.499982 -1.86721 0 5.79586e-13 1.39167e-12 0 0 2.83186e-27
3527 118 0.0015 0.670962 -1.86752 0 -1.83612e-12 -8.15107e-13 0 1.57149e-20 1.73996e-27
10307 344 0.0015 -0.507486 -1.86489 0 6.89254e-13 -2.69841e-14 0 3.36849e-20 5.36039e-28
10306 344 0.0015 -0.504662 -1.8658 0 -2.83274e-13 6.20811e-14 0 3.36849e-20 1.59564e-28
6090 203 0.0015 -0.440091 -1.86563 0 1.04423e-12 2.43269e-13 0 2.48474e-20 3.93325e-28
8006 267 0.0015 -0.253021 -1.86436 0 -1.23469e-12 7.76908e-13 0 0 9.26345e-28
8005 267 0.0015 -0.250695 -1.86524 0 1.19881e-12 -4.15611e-13 0 0 6.95937e-28
10333 345 0.0015 -0.0686412 -1.86599 0 2.61541e-13 -1.24127e-12 0 0 1.21957e-27
10203 341 0.0015 0.288506 -1.8653 0 -6.01906e-14 6.70844e-13 0 7.37441e-21 1.84107e-27
4532 152 0.0015 0.364868 -1.86469 0 1.48239e-13 -9.55181e-13 0 0 1.13811e-27
10270 343 0.0015 0.424172 -1.86529 0 1.64638e-13 8.17082e-13 0 2.48474e-20 3.60368e-27
1483 50 0.0015 0.58358 -1.86557 0 5.09049e-13 2.79261e-13 0 6.81478e-21 5.12158e-28
3526 118 0.0015 0.673499 -1.86561 0 -3.91774e-13 -4.62404e-13 0 3.14298e-20 2.31507e-27
2652 89 0.0015 -0.611842 -1.86351 0 -5.95159e-13 4.59336e-13 0 5.32605e-21 7.55857e-28
10310 344 0.0015 -0.515959 -1.86217 0 1.00146e-13 1.61922e-13 0 1.68424e-20 1.57095e-28
10309 344 0.0015 -0.513134 -1.86307 0 7.92989e-13 -4.37147e-13 0 0 3.67228e-28
10308 344 0.0015 -0.51031 -1.86398 0 -1.32091e-12 4.6394e-13 0 1.68424e-20 8.22127e-28
6036 202 0.0015 -0.337434 -1.86244 0 6.70467e-15 2.47564e-14 0 0 3.35258e-29
8008 267 0.0015 -0.257673 -1.8626 0 3.66663e-13 1.50201e-12 0 2.00918e-20 1.58427e-27
8007 267 0.0015 -0.255347 -1.86348 0 1.72316e-12 -1.87571e-12 0 1.00459e-20 1.78858e-27
10334 345 0.0015 -0.0693181 -1.86288 0 -5.00501e-13 2.1894e-12 0 0 2.23103e-27
1958 66 0.0015 0.0122775 -1.86393 0 -3.31479e-13 3.32584e-12 0 5.20104e-21 7.71688e-27
1484 50 0.0015 0.585807 -1.86266 0 9.25544e-14 3.18891e-13 0 6.81478e-21 4.88343e-29
3525 118 0.0015 0.676036 -1.86369 0 3.91774e-13 4.62404e-13 0 3.14298e-20 2.31507e-27
2653 89 0.0015 -0.615563 -1.86065 0 4.51372e-13 -1.51336e-13 0 5.32605e-21 8.82071e-28
10312 344 0.0015 -0.521607 -1.86035 0 4.36677e-12 -6.2269e-13 0 1.68424e-20 7.88839e-27
10311 344 0.0015 -0.518783 -1.86126 0 -2.26569e-12 3.3227e-13 0 1.68424e-20 3.15283e-27
8010 267 0.0015 -0.262324 -1.86085 0 8.90064e-13 1.89975e-14 0 1.00459e-20 4.71038e-28
8009 267 0.0015 -0.259998 -1.86172 0 -2.06551e-12 -3.77681e-13 0 2.00918e-20 1.12438e-27
8047 269 0.0015 0.151313 -1.86021 0 -5.15172e-14 3.74621e-13 0 0 1.49136e-28
10271 343 0.0015 0.424893 -1.86133 0 -7.0445e-13 -3.92432e-12 0 0 9.19617e-27
3524 118 0.0015 0.678573 -1.86178 0 1.83612e-12 8.15107e-13 0 1.57149e-20 1.73996e-27
10314 344 0.0015 -0.527255 -1.85854 0 -2.21552e-13 8.3745e-13 0 0 2.73249e-28
10313 344 0.0015 -0.524431 -1.85944 0 -2.69168e-12 -1.39318e-13 0 0 4.83397e-27
10335 345 0.0015 -0.0699949 -1.85978 0 2.58601e-13 -8.33183e-13 0 0 1.05713e-27
1959 66 0.0015 0.0117974 -1.85915 0 4.27256e-13 -4.28031e-12 0 5.20104e-21 1.24154e-26
4771 160 0.0015 0.0785585 -1.85825 0 -1.63744e-14 5.63438e-13 0 0 8.12083e-28
10204 341 0.0015 0.287705 -1.85857 0 -1.3763e-13 9.32698e-13 0 7.37441e-21 9.78521e-28
6005 201 0.0015 0.502997 -1.85945 0 -6.06906e-13 -1.52114e-12 0 0 3.20026e-27
1485 50 0.0015 0.588033 -1.85975 0 5.38323e-13 5.61529e-13 0 0 8.8959e-28
3523 118 0.0015 0.681111 -1.85986 0 -2.75496e-12 -1.05023e-12 0 0 3.66852e-27
2654 89 0.0015 -0.619284 -1.8578 0 9.12362e-13 -8.92962e-13 0 0 1.3171e-27
10316 344 0.0015 -0.532903 -1.85672 0 1.49963e-12 2.63068e-13 0 0 7.90729e-28
10315 344 0.0015 -0.530079 -1.85763 0 -1.09217e-13 -5.19234e-13 0 0 4.81218e-28
8013 268 0.0015 -0.167482 -1.85688 0 -3.17538e-13 -8.82252e-13 0 1.90242e-21 1.65108e-27
10336 345 0.0015 -0.0706718 -1.85667 0 -2.20956e-14 2.86485e-14 0 1.57149e-20 8.73986e-29
4533 152 0.0015 0.36352 -1.85607 0 -5.0786e-14 3.40218e-13 0 0 5.12465e-28
10272 343 0.0015 0.425614 -1.85738 0 5.24368e-13 2.56584e-12 0 0 6.34601e-27
1486 50 0.0015 0.59026 -1.85684 0 -5.38323e-13 -5.61529e-13 0 0 8.8959e-28
3522 118 0.0015 0.683648 -1.85795 0 3.50114e-12 1.52054e-12 0 1.57149e-20 6.12986e-27
3521 118 0.0015 0.686185 -1.85603 0 -1.61423e-12 -2.91845e-13 0 1.57149e-20 3.89905e-27
2655 89 0.0015 -0.623004 -1.85494 0 -7.4207e-13 6.03093e-13 0 0 1.19076e-27
10318 344 0.0015 -0.538552 -1.85491 0 -6.6898e-13 6.35499e-13 0 0 1.37515e-27
10317 344 0.0015 -0.535727 -1.85581 0 -1.39979e-12 -3.26533e-13 0 0 7.04891e-28
6037 202 0.0015 -0.342237 -1.85471 0 -2.84857e-13 4.65867e-13 0 0 5.8097e-28
1960 66 0.0015 0.0113172 -1.85437 0 -4.23462e-13 4.1247e-12 0 0 1.16248e-26
3520 118 0.0015 0.688722 -1.85412 0 -3.32743e-13 -1.30305e-12 0 1.57149e-20 4.89669e-28
2656 89 0.0015 -0.626725 -1.85209 0 6.99693e-14 9.17191e-14 0 0 7.21814e-35
10320 344 0.0015 -0.5442 -1.85309 0 -2.10982e-12 6.92699e-13 0 0 4.06298e-27
10319 344 0.0015 -0.541376 -1.854 0 3.25129e-12 -1.15804e-12 0 0 5.30775e-27
10337 345 0.0015 -0.0713486 -1.85356 0 1.02796e-13 -9.11469e-13 0 1.57149e-20 4.51585e-28
8048 269 0.0015 0.150617 -1.85348 0 7.50327e-14 -6.12671e-13 0 0 3.7062e-28
10273 343 0.0015 0.426335 -1.85342 0 -9.94442e-14 -2.25945e-13 0 0 6.85991e-29
1487 50 0.0015 0.592486 -1.85392 0 -9.25544e-14 -3.18891e-13 0 6.81478e-21 4.88343e-29
3519 118 0.0015 0.69126 -1.8522 0 -7.13682e-13 9.90547e-13 0 0 4.00901e-28
10338 345 0.0015 -0.0720254 -1.85046 0 2.08491e-13 -4.25139e-13 0 1.57149e-20 1.53721e-27
10205 341 0.0015 0.286904 -1.85184 0 6.09314e-14 -3.12666e-13 0 7.37441e-21 1.06305e-27
6006 201 0.0015 0.506013 -1.85168 0 3.05194e-13 7.52359e-13 0 0 1.09715e-27
1488 50 0.0015 0.594712 -1.85101 0 -5.09049e-13 -2.79261e-13 0 6.81478e-21 5.12158e-28
3518 118 0.0015 0.693797 -1.85028 0 1.22579e-12 -8.56722e-13 0 0 1.88988e-28
2657 89 0.0015 -0.630446 -1.84923 0 -3.20297e-13 -3.16385e-14 0 5.32605e-21 7.19556e-29
1961 66 0.0015 0.0108371 -1.84959 0 3.79623e-13 -3.59739e-12 0 0 8.72994e-27
4772 160 0.0015 0.0782973 -1.84905 0 2.12499e-14 -7.17942e-13 0 0 8.73154e-28
10274 343 0.0015 0.427056 -1.84946 0 2.85219e-13 1.59681e-12 0 0 2.96662e-27
1489 50 0.0015 0.596939 -1.8481 0 6.36014e-13 4.54796e-13 0 1.36296e-20 4.89381e-28
3517 118 0.0015 0.696334 -1.84837 0 -4.40585e-13 1.31775e-12 0 0 1.72415e-28
2658 89 0.0015 -0.634167 -1.84638 0 5.34807e-14 2.43313e-13 0 1.06521e-20 2.23183e-28
6038 202 0.0015 -0.34704 -1.84697 0 3.39298e-13 -5.91139e-13 0 0 6.765e-28
10339 345 0.0015 -0.0727023 -1.84735 0 -5.949e-13 2.17885e-12 0 0 2.24651e-27
8049 269 0.0015 0.149922 -1.84674 0 -1.17494e-13 1.12482e-12 0 0 1.35381e-27
6541 219 0.0015 0.213251 -1.84656 0 -6.41737e-14 7.59832e-13 0 0 1.14817e-27
4534 152 0.0015 0.362172 -1.84745 0 -1.61481e-13 1.00728e-12 0 0 2.06006e-27
3516 118 0.0015 0.698871 -1.84645 0 4.91523e-13 -7.52324e-13 0 0 3.00499e-28
8014 268 0.0015 -0.163039 -1.84452 0 1.15957e-13 3.13234e-13 0 1.90242e-21 5.59652e-28
10340 345 0.0015 -0.0733791 -1.84424 0 7.07777e-13 -2.68327e-12 0 0 3.51771e-27
1962 66 0.0015 0.010357 -1.84481 0 -1.88488e-13 1.79589e-12 0 0 4.25723e-27
10206 341 0.0015 0.286103 -1.84511 0 4.20301e-14 -5.13688e-13 0 7.37441e-21 2.80645e-28
10275 343 0.0015 0.427777 -1.84551 0 -7.47495e-13 -4.25746e-12 0 0 1.10666e-26
1490 50 0.0015 0.599165 -1.84519 0 -8.33102e-13 -8.47889e-13 0 6.81478e-21 1.28724e-27
3515 118 0.0015 0.701409 -1.84454 0 -7.81159e-13 -3.18885e-13 0 0 2.94987e-28
2659 89 0.0015 -0.637888 -1.84352 0 1.51823e-12 -1.37171e-12 0 1.06521e-20 3.91126e-27
6007 201 0.0015 0.509028 -1.84391 0 -5.90728e-14 -1.25191e-13 0 0 4.35389e-29
1491 50 0.0015 0.601391 -1.84228 0 1.74437e-12 1.78003e-12 0 6.81478e-21 3.14133e-27
3514 118 0.0015 0.703946 -1.84262 0 8.70468e-13 1.08799e-12 0 0 9.07087e-28
2660 89 0.0015 -0.641609 -1.84066 0 -2.23074e-12 1.88345e-12 0 1.06521e-20 5.69122e-27
10341 345 0.0015 -0.074056 -1.84114 0 -1.98512e-13 6.96973e-13 0 1.57149e-20 3.16689e-27
1963 66 0.0015 0.00987681 -1.84004 0 -1.45342e-14 5.21074e-14 0 0 7.58104e-30
10276 343 0.0015 0.428498 -1.84155 0 7.47495e-13 4.25746e-12 0 0 1.10666e-26
3513 118 0.0015 0.706483 -1.84071 0 4.15141e-14 -4.82897e-13 0 0 1.12218e-27
6039 202 0.0015 -0.351842 -1.83924 0 1.89161e-13 -2.6589e-13 0 0 8.27146e-28
10342 345 0.0015 -0.0747328 -1.83803 0 -8.66002e-13 3.99241e-12 0 3.14298e-20 9.56477e-27
4773 160 0.0015 0.0780361 -1.83985 0 5.42091e-15 -2.16785e-13 0 0 4.1368e-28
8050 269 0.0015 0.149226 -1.84 0 9.51627e-14 -1.0399e-12 0 0 1.24859e-27
6542 219 0.0015 0.21269 -1.83947 0 1.69907e-13 -2.01626e-12 0 0 4.28739e-27
10207 341 0.0015 0.285302 -1.83839 0 2.14232e-14 7.30951e-14 0 3.6872e-21 6.99026e-29
4535 152 0.0015 0.360823 -1.83883 0 2.69318e-13 -1.70594e-12 0 5.72705e-21 3.62731e-27
1492 50 0.0015 0.603618 -1.83936 0 -1.41871e-12 -8.61398e-13 0 0 1.89623e-27
3512 118 0.0015 0.70902 -1.83879 0 -2.92328e-12 -2.03312e-12 0 0 7.81079e-27
2661 89 0.0015 -0.64533 -1.83781 0 2.18232e-13 -4.21818e-13 0 1.06521e-20 2.73932e-27
10277 343 0.0015 0.429219 -1.8376 0 -2.85219e-13 -1.59681e-12 0 0 2.96662e-27
6008 201 0.0015 0.512043 -1.83614 0 1.38182e-14 5.93521e-14 0 0 8.16697e-30
1493 50 0.0015 0.605844 -1.83645 0 6.04812e-13 -2.52646e-13 0 0 3.97151e-29
3511 118 0.0015 0.711558 -1.83688 0 2.31163e-12 1.75175e-12 0 0 7.4288e-27
2662 89 0.0015 -0.649051 -1.83495 0 1.0525e-12 -3.70499e-13 0 1.59781e-20 9.05206e-28
10343 345 0.0015 -0.0754097 -1.83493 0 4.21244e-13 -2.08566e-12 0 4.71447e-20 9.7418e-27
1964 66 0.0015 0.00939668 -1.83526 0 3.93337e-14 -1.77528e-13 0 0 2.25655e-29
2663 89 0.0015 -0.652772 -1.8321 0 1.51642e-13 -5.80757e-13 0 1.06521e-20 8.23689e-28
10171 340 0.0015 -0.234195 -1.83312 0 1.82111e-13 -2.55964e-13 0 6.39056e-21 2.14297e-28
8015 268 0.0015 -0.158597 -1.83216 0 -8.08141e-15 -1.02357e-14 0 1.90242e-21 2.6684e-29
8051 269 0.0015 0.14853 -1.83326 0 9.79071e-15 8.62713e-14 0 0 2.1718e-28
6543 219 0.0015 0.212128 -1.83239 0 -1.71484e-13 2.03497e-12 0 0 4.34463e-27
10278 343 0.0015 0.429939 -1.83364 0 9.94442e-14 2.25945e-13 0 0 6.85991e-29
1494 50 0.0015 0.60807 -1.83354 0 -2.81877e-13 3.7593e-13 0 0 1.07623e-29
6040 202 0.0015 -0.356645 -1.83151 0 -3.52655e-13 5.83858e-13 0 0 7.74598e-28
10344 345 0.0015 -0.0760865 -1.83182 0 7.00542e-13 -3.21334e-12 0 4.71447e-20 5.44259e-27
1965 66 0.0015 0.00891654 -1.83048 0 -6.57052e-14 2.73708e-13 0 5.20104e-21 5.45704e-29
4774 160 0.0015 0.0777749 -1.83066 0 -3.18811e-14 1.15067e-12 0 0 1.90633e-27
10208 341 0.0015 0.284501 -1.83166 0 2.53844e-16 -3.77086e-13 0 0 4.35343e-28
4536 152 0.0015 0.359475 -1.83021 0 -1.71871e-13 1.09242e-12 0 5.72705e-21 1.80425e-27
1495 50 0.0015 0.610297 -1.83063 0 3.53912e-13 -2.22716e-13 0 0 2.89539e-29
2664 89 0.0015 -0.656493 -1.82924 0 -9.54744e-13 8.72748e-13 0 5.32605e-21 1.10924e-27
10345 345 0.0015 -0.0767633 -1.82871 0 -2.40818e-13 1.45195e-12 0 3.14298e-20 5.05509e-27
10279 343 0.0015 0.43066 -1.82968 0 -5.24368e-13 -2.56584e-12 0 0 6.34601e-27
6009 201 0.0015 0.515058 -1.82837 0 -2.36238e-14 -9.91592e-14 0 0 1.21694e-29
2665 89 0.0015 -0.660213 -1.82639 0 1.3417e-12 -7.45751e-13 0 0 1.62492e-27
10172 340 0.0015 -0.238704 -1.82673 0 -3.22771e-13 4.67612e-13 0 6.39056e-21 3.54428e-28
8052 269 0.0015 0.147835 -1.82652 0 -7.06077e-14 5.2614e-13 0 3.6872e-21 2.84037e-28
1496 50 0.0015 0.612523 -1.82772 0 -2.87038e-13 4.04157e-13 0 0 1.00842e-28
10346 345 0.0015 -0.0774402 -1.82561 0 -1.09564e-13 1.85617e-13 0 1.57149e-20 8.5083e-28
1966 66 0.0015 0.0084364 -1.8257 0 1.04147e-13 -5.42151e-13 0 5.20104e-21 2.30412e-28
6544 219 0.0015 0.211567 -1.8253 0 8.36902e-14 -9.64941e-13 0 3.51396e-21 1.27464e-27
10209 341 0.0015 0.2837 -1.82493 0 2.78907e-14 1.39545e-13 0 0 6.30062e-28
10280 343 0.0015 0.431381 -1.82573 0 7.0445e-13 3.92432e-12 0 0 9.19617e-27
1497 50 0.0015 0.614749 -1.8248 0 -9.26271e-13 -1.86383e-12 0 0 3.23514e-27
2666 89 0.0015 -0.663934 -1.82353 0 -1.94053e-12 1.05323e-12 0 0 3.13148e-27
6041 202 0.0015 -0.361448 -1.82377 0 4.06783e-14 -1.33007e-13 0 0 5.67022e-29
10347 345 0.0015 -0.078117 -1.8225 0 -1.67856e-13 7.16589e-13 0 0 3.21678e-28
2667 89 0.0015 -0.667655 -1.82068 0 1.01442e-12 -4.96702e-13 0 5.32605e-21 1.90144e-27
10173 340 0.0015 -0.243212 -1.82034 0 2.49668e-13 -3.87702e-13 0 6.39056e-21 2.32908e-28
1967 66 0.0015 0.00795626 -1.82092 0 -9.23832e-14 6.07695e-13 0 5.20104e-21 2.65127e-28
4775 160 0.0015 0.0775136 -1.82146 0 5.10799e-14 -1.84474e-12 0 2.71488e-21 4.45679e-27
4537 152 0.0015 0.358127 -1.82159 0 7.03586e-14 -4.30084e-13 0 5.72705e-21 2.5887e-28
10281 343 0.0015 0.432102 -1.82177 0 -1.64638e-13 -8.17082e-13 0 2.48474e-20 3.60368e-27
6010 201 0.0015 0.518074 -1.8206 0 -2.52718e-13 -6.90114e-13 0 0 1.39933e-27
1498 50 0.0015 0.616976 -1.82189 0 1.51228e-12 2.31999e-12 0 6.81478e-21 4.17516e-27
8016 268 0.0015 -0.154154 -1.81981 0 2.0881e-13 5.77539e-13 0 0 1.1105e-27
10348 345 0.0015 -0.0787939 -1.81939 0 -6.4194e-14 3.2629e-13 0 0 2.2739e-28
8053 269 0.0015 0.147139 -1.81978 0 1.20563e-13 -1.07655e-12 0 3.6872e-21 1.26233e-27
6545 219 0.0015 0.211005 -1.81821 0 -4.64939e-14 5.69128e-13 0 3.51396e-21 3.60079e-28
10210 341 0.0015 0.282899 -1.8182 0 -2.05184e-13 1.36827e-12 0 0 2.27545e-27
1499 50 0.0015 0.619202 -1.81898 0 -5.51209e-13 -8.13179e-13 0 6.81478e-21 1.02227e-27
2668 89 0.0015 -0.671376 -1.81782 0 5.28441e-13 -5.46565e-13 0 5.32605e-21 5.71103e-28
6042 202 0.0015 -0.366251 -1.81604 0 -1.8114e-13 3.62518e-13 0 0 4.42608e-28
10349 345 0.0015 -0.0794707 -1.81629 0 -1.08286e-13 7.80219e-13 0 0 1.63049e-27
1968 66 0.0015 0.00747613 -1.81614 0 -1.65599e-14 1.75403e-13 0 0 2.99562e-28
10282 343 0.0015 0.432823 -1.81781 0 -2.05621e-13 -1.79641e-12 0 2.48474e-20 1.84961e-27
1500 50 0.0015 0.621428 -1.81607 0 -1.55581e-14 -1.44996e-14 0 6.81478e-21 4.48037e-31
2669 89 0.0015 -0.675097 -1.81497 0 -4.53061e-13 4.6957e-13 0 5.32605e-21 5.58958e-28
5941 199 0.0015 0.740778 -1.81551 0 6.38371e-14 2.52774e-13 0 0 1.81351e-28
2670 89 0.0015 -0.678818 -1.81211 0 -3.52829e-14 -3.01181e-14 0 0 1.21409e-31
10174 340 0.0015 -0.24772 -1.81396 0 2.40406e-13 -3.14552e-13 0 0 8.80588e-28
10350 345 0.0015 -0.0801475 -1.81318 0 2.31941e-13 -1.24885e-12 0 0 1.42343e-27
4776 160 0.0015 0.0772524 -1.81226 0 -4.45109e-14 1.60608e-12 0 5.42976e-21 3.65097e-27
8054 269 0.0015 0.146443 -1.81304 0 -1.25178e-13 1.21091e-12 0 3.6872e-21 1.46609e-27
4538 152 0.0015 0.356779 -1.81297 0 -4.43089e-14 2.70225e-13 0 0 9.09207e-29
10283 343 0.0015 0.433544 -1.81386 0 1.68315e-13 1.5479e-12 0 2.48474e-20 1.48064e-27
6011 201 0.0015 0.521089 -1.81283 0 4.97651e-13 1.38206e-12 0 0 2.50406e-27
1969 66 0.0015 0.00699599 -1.81136 0 1.19902e-13 -1.13044e-12 0 5.20104e-21 9.27764e-28
6546 219 0.0015 0.210443 -1.81113 0 1.40352e-14 -2.65249e-13 0 7.02791e-21 3.18478e-28
10211 341 0.0015 0.282098 -1.81148 0 2.47772e-13 -1.78756e-12 0 0 3.14229e-27
6043 202 0.0015 -0.371054 -1.8083 0 1.26565e-14 -6.23931e-14 0 0 7.66947e-28
10284 343 0.0015 0.434265 -1.8099 0 -2.77792e-13 -1.4427e-12 0 1.24237e-20 1.29719e-27
10175 340 0.0015 -0.252228 -1.80757 0 -9.0249e-13 1.2794e-12 0 0 2.80327e-27
8017 268 0.0015 -0.149712 -1.80745 0 -3.97307e-13 -1.10969e-12 0 0 2.54619e-27
1970 66 0.0015 0.00651585 -1.80658 0 -9.05126e-14 8.68928e-13 0 2.08041e-20 7.31309e-28
8055 269 0.0015 0.145748 -1.8063 0 5.10122e-14 -5.73228e-13 0 0 4.37583e-28
5942 199 0.0015 0.743061 -1.80618 0 -1.50864e-13 -5.74838e-13 0 0 4.78151e-28
6547 219 0.0015 0.209882 -1.80404 0 2.33257e-14 -2.07445e-13 0 7.02791e-21 4.37479e-29
10212 341 0.0015 0.281297 -1.80475 0 -1.0525e-13 8.09383e-13 0 3.6872e-21 1.08568e-27