ITEM: TIMESTEP
27090
ITEM: NUMBER OF ATOMS
10500
ITEM: BOX BOUNDS pp pp pp
-1.0249999999999999e+00 1.0249999999999999e+00
-2.0000000000000000e+00 2.0000000000000000e+00
-5.0000000000000003e-02 5.0000000000000003e-02
ITEM: ATOMS id type radius x y z fx fy fz c_bendingE c_stretchingE
10321 345 0.0015 -0.0605191 -1.90326 0 1.04172e-12 -4.00038e-12 0 0 1.50661e-26
6031 202 0.0015 -0.31342 -1.90111 0 -4.75879e-13 7.74004e-13 0 2.74394e-21 2.08761e-27
10322 345 0.0015 -0.061196 -1.90016 0 -8.73575e-13 1.8234e-12 0 0 1.91973e-26
8041 269 0.0015 0.155487 -1.90065 0 -3.84663e-13 3.68134e-12 0 0 2.57822e-26
10261 343 0.0015 0.417684 -1.90089 0 -2.3245e-13 -1.21299e-12 0 0 1.70372e-27
1471 50 0.0015 0.556864 -1.90052 0 -1.84757e-13 1.55305e-14 0 0 1.01575e-29
10323 345 0.0015 -0.0618728 -1.89705 0 -9.72987e-13 6.49935e-12 0 1.57149e-20 2.11864e-26
1951 66 0.0015 0.0156385 -1.89738 0 -6.20685e-14 5.34131e-13 0 0 3.85666e-28
10262 343 0.0015 0.418405 -1.89694 0 1.00655e-12 5.50939e-12 0 0 2.29926e-26
1472 50 0.0015 0.559091 -1.8976 0 3.65076e-13 2.54482e-13 0 6.81478e-21 1.17059e-28
2641 89 0.0015 -0.570912 -1.89491 0 9.27952e-13 -6.15665e-13 0 0 1.60804e-27
1473 50 0.0015 0.561317 -1.89469 0 -7.67696e-13 -1.97717e-12 0 1.36296e-20 3.09457e-27
2642 89 0.0015 -0.574633 -1.89206 0 -2.61699e-12 1.96653e-12 0 0 7.69987e-27
6032 202 0.0015 -0.318223 -1.89337 0 1.51951e-12 -2.46866e-12 0 2.74394e-21 1.21041e-26
10324 345 0.0015 -0.0625496 -1.89394 0 1.08163e-12 -5.29279e-12 0 1.57149e-20 1.79509e-26
1952 66 0.0015 0.0151583 -1.8926 0 1.25994e-13 -9.37873e-13 0 0 6.07881e-28
8042 269 0.0015 0.154791 -1.89391 0 7.03074e-13 -6.69441e-12 0 0 4.30578e-26
10263 343 0.0015 0.419126 -1.89298 0 -8.72702e-13 -5.05014e-12 0 0 2.19327e-26
3540 118 0.0015 0.637977 -1.89243 0 -2.13173e-12 -1.078e-12 0 0 4.88043e-27
6061 203 0.0015 -0.387409 -1.89062 0 -1.97314e-12 2.51967e-12 0 0 4.57708e-27
10325 345 0.0015 -0.0632265 -1.89084 0 3.33821e-13 -2.30086e-12 0 3.14298e-20 1.06664e-26
10231 342 0.0015 0.215 -1.89 0 -1.15333e-13 0 0 0 2.52862e-30
10232 342 0.0015 0.21569 -1.89 0 -2.89547e-13 0 0 0 3.38978e-29
10233 342 0.0015 0.216379 -1.89 0 1.88372e-12 0 0 0 4.50327e-28
10234 342 0.0015 0.217069 -1.89 0 -3.00612e-12 0 0 0 8.65946e-28
10235 342 0.0015 0.217759 -1.89 0 3.22323e-12 0 0 0 9.98132e-28
10236 342 0.0015 0.218448 -1.89 0 -3.44078e-12 0 0 0 1.13437e-27
10237 342 0.0015 0.219138 -1.89 0 4.3463e-12 0 0 0 1.87993e-27
10238 342 0.0015 0.219828 -1.89 0 -5.68648e-12 0 0 0 3.11994e-27
10239 342 0.0015 0.220517 -1.89 0 6.01269e-12 0 0 0 3.46525e-27
10240 342 0.0015 0.221207 -1.89 0 -5.72315e-12 0 0 0 3.13883e-27
10241 342 0.0015 0.221897 -1.89 0 5.50604e-12 0 0 0 2.9041e-27
10242 342 0.0015 0.222586 -1.89 0 -4.49141e-12 0 0 0 2.01497e-27
10243 342 0.0015 0.223276 -1.89 0 3.33211e-12 0 0 0 1.0687e-27
10244 342 0.0015 0.223966 -1.89 0 -3.83899e-12 0 0 0 1.464e-27
10245 342 0.0015 0.224655 -1.89 0 5.94025e-12 0 0 0 3.55813e-27
10246 342 0.0015 0.225345 -1.89 0 -5.94025e-12 0 0 0 3.55813e-27
10247 342 0.0015 0.226034 -1.89 0 3.83899e-12 0 0 0 1.464e-27
10248 342 0.0015 0.226724 -1.89 0 -3.33211e-12 0 0 0 1.0687e-27
10249 342 0.0015 0.227414 -1.89 0 4.49141e-12 0 0 0 2.01497e-27
10250 342 0.0015 0.228103 -1.89 0 -5.50604e-12 0 0 0 2.9041e-27
10251 342 0.0015 0.228793 -1.89 0 5.72315e-12 0 0 0 3.13883e-27
10252 342 0.0015 0.229483 -1.89 0 -6.01269e-12 0 0 0 3.46525e-27
10253 342 0.0015 0.230172 -1.89 0 5.68648e-12 0 0 0 3.11994e-27
10254 342 0.0015 0.230862 -1.89 0 -4.3463e-12 0 0 0 1.87993e-27
10255 342 0.0015 0.231552 -1.89 0 3.44078e-12 0 0 0 1.13437e-27
10256 342 0.0015 0.232241 -1.89 0 -3.22323e-12 0 0 0 9.98132e-28
10257 342 0.0015 0.232931 -1.89 0 3.00612e-12 0 0 0 8.65946e-28
10258 342 0.0015 0.233621 -1.89 0 -1.88372e-12 0 0 0 4.50327e-28
10259 342 0.0015 0.23431 -1.89 0 2.89547e-13 0 0 0 3.38978e-29
10260 342 0.0015 0.235 -1.89 0 1.15333e-13 0 0 0 2.52862e-30
6001 201 0.0015 0.490936 -1.89052 0 9.90547e-14 2.61808e-13 0 0 1.81358e-28
1474 50 0.0015 0.563543 -1.89178 0 1.49459e-12 3.56562e-12 0 1.36296e-20 7.17286e-27
3539 118 0.0015 0.640514 -1.89051 0 5.89024e-12 2.68392e-12 0 0 1.87797e-26
2643 89 0.0015 -0.578354 -1.8892 0 1.71639e-12 -1.84452e-12 0 0 6.22709e-27
6063 203 0.0015 -0.391043 -1.8889 0 -4.4526e-12 6.12806e-13 0 0 5.23136e-27
6064 203 0.0015 -0.392859 -1.88804 0 2.82725e-12 4.59074e-12 0 0 2.76615e-27
6062 203 0.0015 -0.389226 -1.88976 0 3.72285e-12 -4.53842e-12 0 0 7.91897e-27
10264 343 0.0015 0.419847 -1.88903 0 2.7121e-13 1.93164e-12 0 0 2.22507e-27
1475 50 0.0015 0.56577 -1.88887 0 -2.35513e-12 -3.04148e-12 0 1.36296e-20 7.55505e-27
3538 118 0.0015 0.643052 -1.8886 0 -3.00571e-12 4.11189e-13 0 0 1.68122e-26
2644 89 0.0015 -0.582074 -1.88635 0 1.51624e-12 -2.40521e-13 0 0 3.77544e-27
6066 203 0.0015 -0.396492 -1.88631 0 -2.72802e-12 -7.48347e-13 0 2.48474e-20 2.72554e-27
6065 203 0.0015 -0.394676 -1.88717 0 1.96838e-12 -3.92529e-12 0 0 3.59991e-27
7981 267 0.0015 -0.194876 -1.88635 0 1.73416e-12 -2.29608e-12 0 1.00459e-20 4.0929e-27
10326 345 0.0015 -0.0639033 -1.88773 0 -2.25447e-12 1.11233e-11 0 1.57149e-20 6.65997e-26
1953 66 0.0015 0.0146782 -1.88782 0 -4.0575e-14 -1.68087e-13 0 5.20104e-21 6.57658e-28
8043 269 0.0015 0.154095 -1.88717 0 -4.61702e-13 4.2923e-12 0 0 2.03936e-26
3537 118 0.0015 0.645589 -1.88668 0 -2.2804e-12 -4.3872e-12 0 0 9.10145e-27
6068 203 0.0015 -0.400126 -1.88459 0 -8.7312e-13 3.20566e-12 0 2.48474e-20 3.0435e-27
6067 203 0.0015 -0.398309 -1.88545 0 2.26191e-13 1.01292e-12 0 2.48474e-20 1.76196e-29
6033 202 0.0015 -0.323025 -1.88564 0 -1.22542e-12 2.0067e-12 0 5.48788e-21 1.0346e-26
7983 267 0.0015 -0.199527 -1.8846 0 -3.572e-13 -4.7711e-12 0 1.00459e-20 1.32088e-27
7982 267 0.0015 -0.197202 -1.88548 0 -1.92403e-12 5.70228e-12 0 1.00459e-20 5.4132e-27
10327 345 0.0015 -0.0645802 -1.88463 0 1.92071e-12 -9.43295e-12 0 1.57149e-20 5.91e-26
10265 343 0.0015 0.420568 -1.88507 0 -3.23628e-13 -2.15925e-12 0 0 2.68165e-27
1476 50 0.0015 0.567996 -1.88596 0 2.12508e-12 4.58474e-13 0 6.81478e-21 3.39735e-27
3536 118 0.0015 0.648126 -1.88476 0 4.97643e-13 2.12155e-12 0 0 7.02246e-27
2645 89 0.0015 -0.585795 -1.88349 0 -3.83107e-12 2.34465e-12 0 0 1.38191e-26
6071 203 0.0015 -0.405575 -1.882 0 -3.40487e-12 -2.56875e-12 0 0 6.65195e-27
6070 203 0.0015 -0.403759 -1.88287 0 -3.75375e-12 4.03089e-12 0 0 9.25174e-27
6069 203 0.0015 -0.401942 -1.88373 0 4.38831e-12 -5.22363e-12 0 0 1.14157e-26
7985 267 0.0015 -0.204179 -1.88284 0 -6.6109e-13 9.39996e-13 0 0 1.0435e-27
7984 267 0.0015 -0.201853 -1.88372 0 1.12941e-13 9.29649e-13 0 0 4.44707e-29
1954 66 0.0015 0.0141981 -1.88304 0 -3.83838e-14 1.02983e-12 0 5.20104e-21 7.14324e-28
6002 201 0.0015 0.493952 -1.88275 0 1.17502e-13 2.67106e-13 0 0 9.37205e-28
1477 50 0.0015 0.570222 -1.88304 0 8.54714e-13 4.17707e-12 0 6.81478e-21 1.37654e-26
3535 118 0.0015 0.650663 -1.88285 0 3.39357e-12 2.13657e-12 0 0 8.90952e-27
2646 89 0.0015 -0.589516 -1.88064 0 4.79257e-12 -3.51888e-12 0 0 2.30996e-26
6073 203 0.0015 -0.409209 -1.88028 0 -7.18367e-12 -2.30695e-12 0 0 1.28192e-26
6072 203 0.0015 -0.407392 -1.88114 0 9.52264e-12 1.53119e-12 0 0 1.82729e-26
7988 267 0.0015 -0.211156 -1.8802 0 5.00787e-13 2.50094e-12 0 2.00918e-20 1.34888e-27
7987 267 0.0015 -0.208831 -1.88108 0 -3.7914e-12 -5.64176e-13 0 1.00459e-20 5.02603e-27
7986 267 0.0015 -0.206505 -1.88196 0 3.82057e-12 -6.17096e-13 0 0 5.62895e-27
8011 268 0.0015 -0.176367 -1.88159 0 1.22461e-14 3.79251e-14 0 0 5.78691e-30
10328 345 0.0015 -0.065257 -1.88152 0 6.95259e-13 -2.58961e-12 0 0 1.84627e-26
8044 269 0.0015 0.1534 -1.88043 0 2.51053e-13 -2.14452e-12 0 0 4.54824e-27
10266 343 0.0015 0.421289 -1.88111 0 -8.48569e-14 -4.63461e-13 0 0 3.4935e-27
1478 50 0.0015 0.572449 -1.88013 0 -2.96153e-12 -5.981e-12 0 0 2.21658e-26
3534 118 0.0015 0.653201 -1.88093 0 -2.48372e-12 -2.51998e-12 0 0 8.27621e-27
10292 344 0.0015 -0.465124 -1.8785 0 -2.43295e-12 6.96364e-15 0 1.68424e-20 3.54088e-27
10291 344 0.0015 -0.4623 -1.87941 0 3.04043e-13 8.93716e-14 0 1.68424e-20 5.66088e-29
6074 203 0.0015 -0.411025 -1.87942 0 1.39921e-12 6.04199e-12 0 2.48474e-20 2.79484e-27
6075 203 0.0015 -0.412842 -1.87856 0 -1.49853e-12 -7.71552e-12 0 2.48474e-20 2.47266e-27
7990 267 0.0015 -0.215808 -1.87844 0 6.92282e-13 3.95722e-12 0 3.01377e-20 7.5446e-28
7989 267 0.0015 -0.213482 -1.87932 0 7.30244e-13 -4.24981e-12 0 3.01377e-20 1.65998e-27
10329 345 0.0015 -0.0659339 -1.87841 0 -1.32804e-12 5.91261e-12 0 0 1.89829e-26
1955 66 0.0015 0.0137179 -1.87827 0 -6.34379e-15 -5.10459e-13 0 5.20104e-21 2.82225e-28
10201 341 0.0015 0.290108 -1.87875 0 3.38217e-14 -3.48499e-13 0 0 2.30602e-28
3533 118 0.0015 0.655738 -1.87902 0 -3.98931e-13 9.67111e-13 0 0 2.40389e-28
2647 89 0.0015 -0.593237 -1.87778 0 -3.20268e-12 2.50465e-12 0 0 1.40147e-26
10294 344 0.0015 -0.470773 -1.87669 0 -2.66303e-12 -1.10516e-12 0 0 2.05593e-27
10293 344 0.0015 -0.467948 -1.87759 0 3.63086e-12 3.28392e-13 0 1.68424e-20 4.87685e-27
6077 203 0.0015 -0.416475 -1.87683 0 -6.68984e-12 5.45024e-13 0 0 1.27841e-26
6076 203 0.0015 -0.414658 -1.87769 0 6.4684e-12 3.02704e-12 0 2.48474e-20 1.08283e-26
6034 202 0.0015 -0.327828 -1.87791 0 4.5095e-14 -1.22391e-13 0 1.09758e-20 4.67119e-28
7992 267 0.0015 -0.22046 -1.87668 0 7.20832e-13 1.3412e-12 0 1.00459e-20 3.89975e-28
7991 267 0.0015 -0.218134 -1.87756 0 -1.73284e-12 -2.08942e-12 0 2.00918e-20 3.13681e-28
10267 343 0.0015 0.42201 -1.87716 0 7.92638e-13 4.66025e-12 0 0 1.42876e-26
1479 50 0.0015 0.574675 -1.87722 0 9.83447e-14 7.65082e-13 0 0 1.33986e-26
3532 118 0.0015 0.658275 -1.8771 0 -1.06107e-12 -1.74427e-12 0 0 3.97178e-27
2648 89 0.0015 -0.596958 -1.87493 0 -2.17041e-13 -1.11693e-13 0 0 2.45119e-27
10296 344 0.0015 -0.476421 -1.87487 0 -7.89298e-13 -1.40604e-12 0 0 5.46564e-28
10295 344 0.0015 -0.473597 -1.87578 0 2.14457e-12 1.4083e-12 0 0 1.08306e-27
6080 203 0.0015 -0.421925 -1.87425 0 8.14734e-12 -9.99433e-13 0 4.96948e-20 1.94088e-26
6079 203 0.0015 -0.420108 -1.87511 0 -7.95793e-12 -6.89777e-13 0 2.48474e-20 1.74473e-26
6078 203 0.0015 -0.418291 -1.87597 0 4.31491e-12 1.18422e-12 0 0 3.24745e-27
7995 267 0.0015 -0.227437 -1.87404 0 6.96109e-13 -2.79014e-12 0 2.00918e-20 2.27938e-27
7994 267 0.0015 -0.225111 -1.87492 0 1.50369e-12 2.51207e-13 0 2.00918e-20 9.28972e-28
7993 267 0.0015 -0.222785 -1.8758 0 -1.03617e-12 -6.8968e-13 0 1.00459e-20 1.03186e-27
10330 345 0.0015 -0.0666107 -1.87531 0 -7.82794e-14 -2.64104e-13 0 1.57149e-20 4.87616e-27
6003 201 0.0015 0.496967 -1.87498 0 3.31102e-14 1.43501e-13 0 0 1.94648e-27
1480 50 0.0015 0.576901 -1.87431 0 3.94373e-12 5.28234e-12 0 0 2.45243e-26
3531 118 0.0015 0.660812 -1.87519 0 3.64094e-12 2.32671e-12 0 0 8.19697e-27
2649 89 0.0015 -0.600679 -1.87207 0 1.26222e-12 -5.00187e-13 0 0 1.46309e-27
10299 344 0.0015 -0.484893 -1.87215 0 -1.13789e-12 2.3489e-12 0 0 4.48151e-27
10298 344 0.0015 -0.482069 -1.87306 0 4.28286e-12 -2.39527e-12 0 0 9.55762e-27
10297 344 0.0015 -0.479245 -1.87396 0 -2.52935e-12 1.67489e-12 0 0 5.39304e-27
6082 203 0.0015 -0.425558 -1.87252 0 -8.1228e-13 4.3549e-12 0 7.45423e-20 2.49478e-27
6081 203 0.0015 -0.423741 -1.87338 0 -2.56206e-12 -1.09516e-12 0 7.45423e-20 3.41883e-27
7997 267 0.0015 -0.232089 -1.87228 0 -1.70995e-12 -2.20994e-12 0 0 2.45112e-28
7996 267 0.0015 -0.229763 -1.87316 0 9.3332e-14 4.49061e-12 0 1.00459e-20 2.32455e-27
10331 345 0.0015 -0.0672875 -1.8722 0 9.98404e-13 -4.04613e-12 0 1.57149e-20 8.19045e-27
1956 66 0.0015 0.0132378 -1.87349 0 -1.70089e-13 2.29074e-12 0 0 6.7346e-27
8045 269 0.0015 0.152704 -1.87369 0 -2.61388e-13 2.21192e-12 0 0 4.88688e-27
10202 341 0.0015 0.289307 -1.87202 0 4.3737e-14 -2.60064e-13 0 0 9.38814e-28
4531 152 0.0015 0.366216 -1.8733 0 -2.01589e-13 1.24863e-12 0 0 3.87633e-27
10268 343 0.0015 0.422731 -1.8732 0 -9.96058e-13 -5.57897e-12 0 0 1.83501e-26
3530 118 0.0015 0.66335 -1.87327 0 -2.05448e-12 -2.51906e-14 0 0 4.52515e-27
10301 344 0.0015 -0.490541 -1.87033 0 -3.99318e-12 2.17365e-12 0 0 1.3625e-26
10300 344 0.0015 -0.487717 -1.87124 0 -6.03337e-13 -1.6881e-12 0 0 3.36968e-28
6084 203 0.0015 -0.429191 -1.8708 0 -5.17269e-12 1.50262e-12 0 2.48474e-20 9.74253e-27
6083 203 0.0015 -0.427374 -1.87166 0 4.15057e-12 -5.20523e-12 0 4.96948e-20 1.10066e-26
6035 202 0.0015 -0.332631 -1.87017 0 1.73705e-13 -2.15331e-13 0 1.09758e-20 1.41883e-28
7999 267 0.0015 -0.23674 -1.87052 0 2.66307e-12 1.99125e-12 0 2.00918e-20 1.27075e-27
7998 267 0.0015 -0.234415 -1.8714 0 -1.01934e-12 -6.25251e-13 0 1.00459e-20 1.24629e-27
1481 50 0.0015 0.579128 -1.8714 0 -2.96474e-12 -3.91748e-12 0 0 1.98403e-26
3529 118 0.0015 0.665887 -1.87136 0 4.59034e-13 -1.06792e-12 0 0 3.22501e-28
2650 89 0.0015 -0.6044 -1.86922 0 -1.01761e-12 4.12688e-13 0 0 8.85056e-28
10303 344 0.0015 -0.49619 -1.86852 0 -3.95582e-12 2.73768e-12 0 0 1.72142e-26
10302 344 0.0015 -0.493366 -1.86943 0 7.98145e-12 -3.32204e-12 0 0 3.06914e-26
6087 203 0.0015 -0.434641 -1.86821 0 -2.62851e-12 -8.19007e-13 0 0 4.28119e-27
6085 203 0.0015 -0.431008 -1.86994 0 3.34395e-13 4.24166e-12 0 0 5.71572e-27
6086 203 0.0015 -0.432824 -1.86908 0 3.84357e-12 -4.90975e-12 0 0 8.6974e-27
8001 267 0.0015 -0.241392 -1.86876 0 3.21166e-13 1.00056e-12 0 3.01377e-20 3.26082e-28
8000 267 0.0015 -0.239066 -1.86964 0 -8.84989e-13 -2.24942e-12 0 3.01377e-20 3.85303e-28
8012 268 0.0015 -0.171924 -1.86923 0 -5.83985e-13 -1.63454e-12 0 0 1.04959e-26
10332 345 0.0015 -0.0679644 -1.86909 0 -2.56966e-13 1.81727e-12 0 1.57149e-20 6.66956e-27
1957 66 0.0015 0.0127576 -1.86871 0 3.95984e-13 -4.52588e-12 0 0 1.37679e-26
10269 343 0.0015 0.423451 -1.86924 0 6.28204e-13 3.81173e-12 0 1.24237e-20 8.83214e-27
1482 50 0.0015 0.581354 -1.86848 0 -9.53837e-14 -4.482e-13 0 0 1.19516e-27
3528 118 0.0015 0.668424 -1.86944 0 -2.83544e-12 -1.36907e-12 0 0 7.09591e-27
2651 89 0.0015 -0.608121 -1.86636 0 1.28327e-12 -6.96953e-13 0 0 1.36227e-27
10305 344 0.0015 -0.501838 -1.8667 0 5.05159e-12 -9.41976e-14 0 0 9.65685e-27
10304 344 0.0015 -0.499014 -1.86761 0 -2.68609e-12 -8.47031e-13 0 0 4.47891e-27
6089 203 0.0015 -0.438274 -1.86649 0 -4.63387e-14 -4.78123e-12 0 2.48474e-20 2.53814e-27
6088 203 0.0015 -0.436457 -1.86735 0 -2.57361e-13 5.97214e-12 0 2.48474e-20 2.77631e-27
8004 267 0.0015 -0.248369 -1.86612 0 8.4169e-13 2.71193e-12 0 0 1.3001e-28
8003 267 0.0015 -0.246044 -1.867 0 -3.67105e-13 -2.31298e-12 0 1.00459e-20 3.52489e-28
8002 267 0.0015 -0.243718 -1.86788 0 -8.42568e-13 9.99418e-13 0 2.00918e-20 4.67581e-28
8046 269 0.0015 0.152008 -1.86695 0 3.55687e-13 -3.2424e-12 0 0 1.02969e-26
6004 201 0.0015 0.499982 -1.86721 0 -5.80465e-13 -1.50165e-12 0 0 3.03548e-27
3527 118 0.0015 0.670962 -1.86752 0 5.44227e-12 3.32253e-12 0 0 1.79954e-26
10307 344 0.0015 -0.507486 -1.86489 0 -5.74253e-13 1.7149e-12 0 1.68424e-20 1.19849e-27
10306 344 0.0015 -0.504662 -1.8658 0 -3.02712e-12 -8.07759e-13 0 0 5.19231e-27
6090 203 0.0015 -0.440091 -1.86563 0 6.80685e-13 1.15303e-12 0 2.48474e-20 8.14259e-30
8006 267 0.0015 -0.253021 -1.86436 0 -3.75635e-12 -4.31161e-13 0 0 4.08906e-27
8005 267 0.0015 -0.250695 -1.86524 0 1.23423e-12 -1.52038e-12 0 0 1.28855e-27
10333 345 0.0015 -0.0686412 -1.86599 0 -8.4444e-13 2.57193e-12 0 0 3.73064e-27
10203 341 0.0015 0.288506 -1.8653 0 -7.58604e-14 8.09973e-13 0 0 7.83338e-28
4532 152 0.0015 0.364868 -1.86469 0 2.6129e-13 -1.56064e-12 0 0 4.1206e-27
10270 343 0.0015 0.424172 -1.86529 0 -3.86017e-13 -3.25642e-12 0 2.48474e-20 6.05333e-27
1483 50 0.0015 0.58358 -1.86557 0 1.30724e-12 2.31016e-12 0 0 3.79818e-27
3526 118 0.0015 0.673499 -1.86561 0 -7.35421e-12 -4.13027e-12 0 0 3.16044e-26
2652 89 0.0015 -0.611842 -1.86351 0 2.63296e-13 -7.68538e-13 0 0 2.94297e-27
10310 344 0.0015 -0.515959 -1.86217 0 1.24944e-12 9.17028e-14 0 0 3.10404e-27
10309 344 0.0015 -0.513134 -1.86307 0 1.38332e-12 -1.30202e-12 0 1.68424e-20 1.27475e-27
10308 344 0.0015 -0.51031 -1.86398 0 1.16438e-13 -1.17186e-13 0 1.68424e-20 2.09782e-27
6036 202 0.0015 -0.337434 -1.86244 0 -1.91494e-13 2.42639e-13 0 8.23182e-21 1.83005e-28
8008 267 0.0015 -0.257673 -1.8626 0 -1.20623e-12 -1.73876e-13 0 0 2.02762e-27
8007 267 0.0015 -0.255347 -1.86348 0 4.2766e-12 9.32041e-13 0 0 4.71582e-27
10334 345 0.0015 -0.0693181 -1.86288 0 4.23392e-13 -7.24612e-13 0 1.57149e-20 4.22651e-27
1958 66 0.0015 0.0122775 -1.86393 0 -2.2927e-13 2.60396e-12 0 0 7.17092e-27
1484 50 0.0015 0.585807 -1.86266 0 -1.462e-12 -2.21422e-12 0 0 3.83271e-27
3525 118 0.0015 0.676036 -1.86369 0 7.35421e-12 4.13027e-12 0 0 3.16044e-26
2653 89 0.0015 -0.615563 -1.86065 0 -1.33884e-12 1.91606e-12 0 0 3.37505e-27
10312 344 0.0015 -0.521607 -1.86035 0 5.16272e-12 -6.61023e-13 0 0 1.08426e-26
10311 344 0.0015 -0.518783 -1.86126 0 -4.06759e-12 1.0809e-12 0 0 7.40549e-27
8010 267 0.0015 -0.262324 -1.86085 0 3.36721e-13 5.30091e-13 0 0 1.1221e-29
8009 267 0.0015 -0.259998 -1.86172 0 -9.89162e-13 -6.87879e-13 0 0 2.23526e-28
8047 269 0.0015 0.151313 -1.86021 0 -3.71858e-13 3.5198e-12 0 0 1.18578e-26
10271 343 0.0015 0.424893 -1.86133 0 2.67793e-13 2.21425e-12 0 3.72711e-20 3.86646e-27
3524 118 0.0015 0.678573 -1.86178 0 -5.44227e-12 -3.32253e-12 0 0 1.79954e-26
10314 344 0.0015 -0.527255 -1.85854 0 3.43746e-12 1.97845e-12 0 0 8.64091e-27
10313 344 0.0015 -0.524431 -1.85944 0 -6.30821e-12 -2.36265e-13 0 0 1.45907e-26
10335 345 0.0015 -0.0699949 -1.85978 0 3.2565e-13 -2.55155e-12 0 1.57149e-20 2.96003e-27
1959 66 0.0015 0.0117974 -1.85915 0 3.11104e-13 -3.20389e-12 0 0 1.13675e-26
4771 160 0.0015 0.0785585 -1.85825 0 -2.18638e-14 7.80051e-13 0 0 1.55642e-27
10204 341 0.0015 0.287705 -1.85857 0 -1.29821e-13 4.81891e-13 0 0 9.80608e-28
6005 201 0.0015 0.502997 -1.85945 0 7.31817e-14 1.11076e-13 0 0 3.19144e-27
1485 50 0.0015 0.588033 -1.85975 0 -1.09371e-13 -5.25843e-13 0 0 3.07363e-27
3523 118 0.0015 0.681111 -1.85986 0 2.83544e-12 1.36907e-12 0 0 7.09591e-27
2654 89 0.0015 -0.619284 -1.8578 0 4.9801e-13 -1.14724e-12 0 0 1.07316e-27
10316 344 0.0015 -0.532903 -1.85672 0 4.78388e-13 6.04072e-13 0 0 6.34054e-28
10315 344 0.0015 -0.530079 -1.85763 0 1.70682e-13 -2.73006e-12 0 0 4.11424e-28
8013 268 0.0015 -0.167482 -1.85688 0 8.77437e-13 2.44547e-12 0 0 1.34591e-26
10336 345 0.0015 -0.0706718 -1.85667 0 1.89655e-13 -3.22196e-13 0 3.14298e-20 4.83204e-27
4533 152 0.0015 0.36352 -1.85607 0 -2.59874e-15 -1.14714e-13 0 0 6.93196e-28
10272 343 0.0015 0.425614 -1.85738 0 2.17255e-13 1.6204e-12 0 2.48474e-20 4.86237e-27
1486 50 0.0015 0.59026 -1.85684 0 1.09371e-13 5.25843e-13 0 0 3.07363e-27
3522 118 0.0015 0.683648 -1.85795 0 -4.59034e-13 1.06792e-12 0 0 3.22501e-28
3521 118 0.0015 0.686185 -1.85603 0 2.05448e-12 2.51906e-14 0 0 4.52515e-27
2655 89 0.0015 -0.623004 -1.85494 0 5.51671e-13 -1.50737e-13 0 0 7.71567e-28
10318 344 0.0015 -0.538552 -1.85491 0 -6.90037e-12 4.51326e-13 0 0 1.90577e-26
10317 344 0.0015 -0.535727 -1.85581 0 2.29162e-12 4.28418e-13 0 0 6.87226e-27
6037 202 0.0015 -0.342237 -1.85471 0 -2.7361e-13 5.09801e-13 0 0 1.97683e-27
1960 66 0.0015 0.0113172 -1.85437 0 -6.42429e-13 6.60735e-12 0 0 2.98624e-26
3520 118 0.0015 0.688722 -1.85412 0 -3.64094e-12 -2.32671e-12 0 0 8.19697e-27
2656 89 0.0015 -0.626725 -1.85209 0 -8.54124e-13 5.6505e-13 0 5.32605e-21 8.16923e-28
10320 344 0.0015 -0.5442 -1.85309 0 -1.75504e-12 9.82306e-14 0 0 2.38397e-27
10319 344 0.0015 -0.541376 -1.854 0 5.73811e-12 -5.03996e-13 0 0 1.50214e-26
10337 345 0.0015 -0.0713486 -1.85356 0 -6.49538e-13 3.09205e-12 0 1.57149e-20 4.51128e-27
8048 269 0.0015 0.150617 -1.85348 0 2.01527e-13 -1.89017e-12 0 3.6872e-21 5.15269e-27
10273 343 0.0015 0.426335 -1.85342 0 -3.25492e-13 -2.47975e-12 0 1.24237e-20 4.90156e-27
1487 50 0.0015 0.592486 -1.85392 0 1.462e-12 2.21422e-12 0 0 3.83271e-27
3519 118 0.0015 0.69126 -1.8522 0 1.06107e-12 1.74427e-12 0 0 3.97178e-27
10338 345 0.0015 -0.0720254 -1.85046 0 2.0375e-15 -1.42715e-13 0 1.57149e-20 2.84587e-27
10205 341 0.0015 0.286904 -1.85184 0 7.57488e-14 4.60374e-14 0 3.6872e-21 1.90947e-27
6006 201 0.0015 0.506013 -1.85168 0 5.20828e-13 1.44079e-12 0 0 2.71511e-27
1488 50 0.0015 0.594712 -1.85101 0 -1.30724e-12 -2.31016e-12 0 0 3.79818e-27
3518 118 0.0015 0.693797 -1.85028 0 3.98931e-13 -9.67111e-13 0 0 2.40389e-28
2657 89 0.0015 -0.630446 -1.84923 0 -8.24254e-13 9.49551e-13 0 5.32605e-21 3.08727e-27
1961 66 0.0015 0.0108371 -1.84959 0 3.3182e-13 -3.7894e-12 0 0 1.86352e-26
4772 160 0.0015 0.0782973 -1.84905 0 7.06135e-14 -2.58377e-12 0 0 9.87778e-27
10274 343 0.0015 0.427056 -1.84946 0 -6.30387e-13 -3.01162e-12 0 1.24237e-20 1.41366e-26
1489 50 0.0015 0.596939 -1.8481 0 9.53837e-14 4.482e-13 0 0 1.19516e-27
3517 118 0.0015 0.696334 -1.84837 0 2.48372e-12 2.51998e-12 0 0 8.27621e-27
2658 89 0.0015 -0.634167 -1.84638 0 1.90539e-12 -1.88832e-12 0 5.32605e-21 4.70036e-27
6038 202 0.0015 -0.34704 -1.84697 0 1.11225e-12 -1.87128e-12 0 0 6.29298e-27
10339 345 0.0015 -0.0727023 -1.84735 0 -1.81208e-13 3.71583e-13 0 0 3.52464e-27
8049 269 0.0015 0.149922 -1.84674 0 1.36351e-13 -1.423e-12 0 3.6872e-21 5.55782e-27
6541 219 0.0015 0.213251 -1.84656 0 2.1754e-15 3.22268e-14 0 0 2.01638e-30
4534 152 0.0015 0.362172 -1.84745 0 -3.08946e-14 2.90984e-13 0 0 4.95191e-28
3516 118 0.0015 0.698871 -1.84645 0 -3.39357e-12 -2.13657e-12 0 0 8.90952e-27
8014 268 0.0015 -0.163039 -1.84452 0 -1.59783e-13 -4.37478e-13 0 0 3.66392e-27
10340 345 0.0015 -0.0733791 -1.84424 0 3.88605e-13 -8.90573e-13 0 0 2.62707e-27
1962 66 0.0015 0.010357 -1.84481 0 7.31966e-14 -1.71353e-13 0 0 8.5781e-29
10206 341 0.0015 0.286103 -1.84511 0 -1.34671e-14 -3.41605e-13 0 7.37441e-21 1.29435e-27
10275 343 0.0015 0.427777 -1.84551 0 1.47727e-12 7.63316e-12 0 2.48474e-20 3.40444e-26
1490 50 0.0015 0.599165 -1.84519 0 2.96474e-12 3.91748e-12 0 0 1.98403e-26
3515 118 0.0015 0.701409 -1.84454 0 -4.97643e-13 -2.12155e-12 0 0 7.02246e-27
2659 89 0.0015 -0.637888 -1.84352 0 -9.36783e-13 1.04324e-12 0 0 1.78552e-27
6007 201 0.0015 0.509028 -1.84391 0 -1.18788e-12 -3.15302e-12 0 5.99535e-21 1.70198e-26
1491 50 0.0015 0.601391 -1.84228 0 -3.94373e-12 -5.28234e-12 0 0 2.45243e-26
3514 118 0.0015 0.703946 -1.84262 0 2.2804e-12 4.3872e-12 0 0 9.10145e-27
2660 89 0.0015 -0.641609 -1.84066 0 1.61758e-13 -1.39722e-13 0 0 6.96129e-29
10341 345 0.0015 -0.074056 -1.84114 0 8.96661e-13 -4.75524e-12 0 0 1.58788e-26
1963 66 0.0015 0.00987681 -1.84004 0 2.06906e-13 -2.43502e-12 0 5.20104e-21 9.72031e-27
10276 343 0.0015 0.428498 -1.84155 0 -1.47727e-12 -7.63316e-12 0 2.48474e-20 3.40444e-26
3513 118 0.0015 0.706483 -1.84071 0 3.00571e-12 -4.11189e-13 0 0 1.68122e-26
6039 202 0.0015 -0.351842 -1.83924 0 -1.11883e-12 1.88274e-12 0 2.74394e-21 6.34974e-27
10342 345 0.0015 -0.0747328 -1.83803 0 -1.11254e-12 5.10515e-12 0 0 1.64544e-26
4773 160 0.0015 0.0780361 -1.83985 0 -8.91643e-14 3.42486e-12 0 0 1.50425e-26
8050 269 0.0015 0.149226 -1.84 0 -2.78626e-13 2.72782e-12 0 3.6872e-21 7.4758e-27
6542 219 0.0015 0.21269 -1.83947 0 2.567e-14 -5.38494e-13 0 0 5.09379e-28
10207 341 0.0015 0.285302 -1.83839 0 2.03277e-13 -1.44647e-12 0 7.37441e-21 2.43512e-27
4535 152 0.0015 0.360823 -1.83883 0 -2.16487e-13 1.34991e-12 0 0 3.70629e-27
1492 50 0.0015 0.603618 -1.83936 0 -9.83447e-14 -7.65082e-13 0 0 1.33986e-26
3512 118 0.0015 0.70902 -1.83879 0 -5.89024e-12 -2.68392e-12 0 0 1.87797e-26
2661 89 0.0015 -0.64533 -1.83781 0 1.03233e-14 -5.09299e-13 0 0 1.18489e-28
10277 343 0.0015 0.429219 -1.8376 0 6.30387e-13 3.01162e-12 0 1.24237e-20 1.41366e-26
6008 201 0.0015 0.512043 -1.83614 0 1.48238e-12 3.88741e-12 0 5.99535e-21 2.12853e-26
1493 50 0.0015 0.605844 -1.83645 0 2.96153e-12 5.981e-12 0 0 2.21658e-26
3511 118 0.0015 0.711558 -1.83688 0 2.13173e-12 1.078e-12 0 0 4.88043e-27
2662 89 0.0015 -0.649051 -1.83495 0 -5.59225e-13 1.19543e-12 0 0 1.10491e-27
10343 345 0.0015 -0.0754097 -1.83493 0 -1.81801e-13 1.0542e-12 0 0 4.84941e-27
1964 66 0.0015 0.00939668 -1.83526 0 -3.27263e-13 3.43913e-12 0 1.04021e-20 1.04243e-26
2663 89 0.0015 -0.652772 -1.8321 0 6.04732e-13 -8.1925e-13 0 5.32605e-21 1.00206e-27
10171 340 0.0015 -0.234195 -1.83312 0 -4.7823e-13 6.52193e-13 0 0 1.41989e-27
8015 268 0.0015 -0.158597 -1.83216 0 -4.37895e-13 -1.22132e-12 0 0 3.39858e-27
8051 269 0.0015 0.14853 -1.83326 0 1.97552e-13 -1.74567e-12 0 0 3.00772e-27
6543 219 0.0015 0.212128 -1.83239 0 -1.28127e-13 1.9863e-12 0 0 4.85215e-27
10278 343 0.0015 0.429939 -1.83364 0 3.25492e-13 2.47975e-12 0 1.24237e-20 4.90156e-27
1494 50 0.0015 0.60807 -1.83354 0 -8.54714e-13 -4.17707e-12 0 6.81478e-21 1.37654e-26
6040 202 0.0015 -0.356645 -1.83151 0 7.56779e-13 -1.28231e-12 0 2.74394e-21 2.8654e-27
10344 345 0.0015 -0.0760865 -1.83182 0 1.38047e-12 -6.01064e-12 0 0 1.84896e-26
1965 66 0.0015 0.00891654 -1.83048 0 -2.73397e-13 2.74624e-12 0 1.56031e-20 1.73736e-26
4774 160 0.0015 0.0777749 -1.83066 0 4.23869e-14 -1.90049e-12 0 0 6.92053e-27
10208 341 0.0015 0.284501 -1.83166 0 9.78457e-14 -8.37753e-13 0 3.6872e-21 9.01731e-27
4536 152 0.0015 0.359475 -1.83021 0 3.35776e-14 -1.88753e-13 0 0 6.26743e-27
1495 50 0.0015 0.610297 -1.83063 0 -2.12508e-12 -4.58474e-13 0 6.81478e-21 3.39735e-27
2664 89 0.0015 -0.656493 -1.82924 0 -3.20323e-13 -2.55039e-13 0 1.06521e-20 1.53615e-29
10345 345 0.0015 -0.0767633 -1.82871 0 -1.17575e-12 4.4077e-12 0 0 1.47993e-26
10279 343 0.0015 0.43066 -1.82968 0 -2.17255e-13 -1.6204e-12 0 2.48474e-20 4.86237e-27
6009 201 0.0015 0.515058 -1.82837 0 6.8669e-14 1.91209e-13 0 5.99535e-21 1.28302e-26
2665 89 0.0015 -0.660213 -1.82639 0 -4.0668e-13 1.40296e-12 0 1.06521e-20 1.77564e-27
10172 340 0.0015 -0.238704 -1.82673 0 1.33023e-12 -1.81274e-12 0 0 5.91965e-27
8052 269 0.0015 0.147835 -1.82652 0 -2.33468e-13 2.02495e-12 0 0 4.26349e-27
1496 50 0.0015 0.612523 -1.82772 0 2.35513e-12 3.04148e-12 0 1.36296e-20 7.55505e-27
10346 345 0.0015 -0.0774402 -1.82561 0 1.84447e-13 1.00746e-13 0 0 4.83992e-28
1966 66 0.0015 0.0084364 -1.8257 0 4.95135e-13 -5.17993e-12 0 1.56031e-20 2.03425e-26
6544 219 0.0015 0.211567 -1.8253 0 1.04074e-13 -1.69509e-12 0 3.51396e-21 4.4358e-27
10209 341 0.0015 0.2837 -1.82493 0 -4.81948e-13 3.76946e-12 0 0 1.35877e-26
10280 343 0.0015 0.431381 -1.82573 0 -2.67793e-13 -2.21425e-12 0 3.72711e-20 3.86646e-27
1497 50 0.0015 0.614749 -1.8248 0 -1.49459e-12 -3.56562e-12 0 1.36296e-20 7.17286e-27
2666 89 0.0015 -0.663934 -1.82353 0 1.10323e-12 -1.79961e-12 0 5.32605e-21 2.61644e-27
6041 202 0.0015 -0.361448 -1.82377 0 -2.52765e-13 4.45017e-13 0 2.74394e-21 1.04736e-27
10347 345 0.0015 -0.078117 -1.8225 0 -6.00941e-13 2.97759e-12 0 1.57149e-20 1.16476e-26
2667 89 0.0015 -0.667655 -1.82068 0 3.44849e-13 1.00535e-13 0 0 2.18517e-27
10173 340 0.0015 -0.243212 -1.82034 0 -1.16123e-12 1.57197e-12 0 6.39056e-21 5.07447e-27
1967 66 0.0015 0.00795626 -1.82092 0 -1.02184e-13 1.43048e-12 0 1.56031e-20 3.83199e-27
4775 160 0.0015 0.0775136 -1.82146 0 2.03429e-14 -3.55388e-13 0 0 1.23033e-27
4537 152 0.0015 0.358127 -1.82159 0 3.01504e-13 -1.98892e-12 0 0 4.90772e-27
10281 343 0.0015 0.432102 -1.82177 0 3.86017e-13 3.25642e-12 0 2.48474e-20 6.05333e-27
6010 201 0.0015 0.518074 -1.8206 0 -9.39739e-13 -2.4969e-12 0 0 9.0902e-27
1498 50 0.0015 0.616976 -1.82189 0 7.67696e-13 1.97717e-12 0 1.36296e-20 3.09457e-27
8016 268 0.0015 -0.154154 -1.81981 0 6.01146e-13 1.66615e-12 0 1.90242e-21 5.72613e-27
10348 345 0.0015 -0.0787939 -1.81939 0 6.27768e-13 -4.69381e-12 0 1.57149e-20 1.25067e-26
8053 269 0.0015 0.147139 -1.81978 0 1.19244e-13 -1.07506e-12 0 0 3.42133e-27
6545 219 0.0015 0.211005 -1.81821 0 -1.3709e-13 1.92071e-12 0 3.51396e-21 5.87092e-27
10210 341 0.0015 0.282899 -1.8182 0 4.03932e-13 -3.0585e-12 0 0 9.40618e-27
1499 50 0.0015 0.619202 -1.81898 0 -3.65076e-13 -2.54482e-13 0 6.81478e-21 1.17059e-28
2668 89 0.0015 -0.671376 -1.81782 0 -1.76831e-12 1.52346e-12 0 0 3.59554e-27
6042 202 0.0015 -0.366251 -1.81604 0 3.37945e-13 -5.67551e-13 0 0 1.57999e-27
10349 345 0.0015 -0.0794707 -1.81629 0 6.82845e-13 -1.20475e-12 0 1.57149e-20 6.4416e-27
1968 66 0.0015 0.00747613 -1.81614 0 -5.19178e-14 -1.29359e-13 0 1.56031e-20 2.59043e-28
10282 343 0.0015 0.432823 -1.81781 0 -6.28204e-13 -3.81173e-12 0 1.24237e-20 8.83214e-27
1500 50 0.0015 0.621428 -1.81607 0 1.84757e-13 -1.55305e-14 0 0 1.01575e-29
2669 89 0.0015 -0.675097 -1.81497 0 2.29717e-12 -2.09108e-12 0 0 6.3833e-27
5941 199 0.0015 0.740778 -1.81551 0 6.64821e-14 2.56144e-13 0 2.60052e-21 1.86818e-28
2670 89 0.0015 -0.678818 -1.81211 0 -1.34512e-12 1.17246e-12 0 0 4.13202e-27
10174 340 0.0015 -0.24772 -1.81396 0 1.24341e-12 -1.71979e-12 0 6.39056e-21 6.18715e-27
10350 345 0.0015 -0.0801475 -1.81318 0 -6.62545e-13 2.36607e-12 0 0 5.31324e-27
4776 160 0.0015 0.0772524 -1.81226 0 -2.65628e-14 6.78755e-13 0 0 1.03593e-27
8054 269 0.0015 0.146443 -1.81304 0 1.16285e-13 -1.02937e-12 0 0 1.29129e-27
4538 152 0.0015 0.356779 -1.81297 0 9.45372e-14 -5.42965e-13 0 0 7.93846e-27
10283 343 0.0015 0.433544 -1.81386 0 9.96058e-13 5.57897e-12 0 0 1.83501e-26
6011 201 0.0015 0.521089 -1.81283 0 1.15895e-13 3.52344e-13 0 0 2.55439e-27
1969 66 0.0015 0.00699599 -1.81136 0 -1.66098e-13 2.59072e-12 0 1.56031e-20 6.79762e-27
6546 219 0.0015 0.210443 -1.81113 0 2.77628e-13 -3.46772e-12 0 3.51396e-21 1.19521e-26
10211 341 0.0015 0.282098 -1.81148 0 -1.51042e-13 1.03147e-12 0 0 2.73547e-27
6043 202 0.0015 -0.371054 -1.8083 0 -4.44222e-13 7.38151e-13 0 0 1.55942e-27
10284 343 0.0015 0.434265 -1.8099 0 -7.92638e-13 -4.66025e-12 0 0 1.42876e-26
10175 340 0.0015 -0.252228 -1.80757 0 -1.27444e-12 1.78882e-12 0 6.39056e-21 6.36512e-27
8017 268 0.0015 -0.149712 -1.80745 0 -3.64776e-13 -1.01853e-12 0 1.90242e-21 3.12983e-27
1970 66 0.0015 0.00651585 -1.80658 0 2.9983e-13 -3.79621e-12 0 1.04021e-20 9.94821e-27
8055 269 0.0015 0.145748 -1.8063 0 -1.02201e-13 8.46183e-13 0 0 1.18583e-27
5942 199 0.0015 0.743061 -1.80618 0 -1.74437e-13 -6.8988e-13 0 5.20104e-21 7.19877e-28
6547 219 0.0015 0.209882 -1.80404 0 -1.31296e-13 1.56019e-12 0 0 6.25297e-27
10212 341 0.0015 0.281297 -1.80475 0 4.65352e-15 2.43777e-13 0 0 5.89707e-29
4539 152 0.0015 0.35543 -1.80435 0 -4.31646e-13 2.76579e-12 0 0 9.57063e-27
10285 343 0.0015 0.434986 -1.80595 0 8.48569e-14 4.63461e-13 0 0 3.4935e-27
6012 201 0.0015 0.524104 -1.80507 0 -5.43927e-14 -1.26206e-13 0 0 1.70412e-27