ITEM: TIMESTEP
52030
ITEM: NUMBER OF ATOMS
10500
ITEM: BOX BOUNDS pp pp pp
-1.0249999999999999e+00 1.0249999999999999e+00
-2.0000000000000000e+00 2.0000000000000000e+00
-5.0000000000000003e-02 5.0000000000000003e-02
ITEM: ATOMS id type radius x y z fx fy fz c_bendingE c_stretchingE
10321 345 0.0015 -0.0605191 -1.90326 0 -6.92609e-13 3.4483e-12 0 1.57149e-20 1.09214e-26
6031 202 0.0015 -0.31342 -1.90111 0 1.07105e-12 -1.72063e-12 0 0 1.03875e-26
10322 345 0.0015 -0.061196 -1.90016 0 -2.10336e-13 3.90158e-13 0 1.57149e-20 2.46492e-26
8041 269 0.0015 0.155487 -1.90065 0 1.56019e-13 -1.53207e-12 0 3.6872e-21 4.46298e-27
10261 343 0.0015 0.417684 -1.90089 0 3.73533e-13 2.3246e-12 0 1.24237e-20 6.18937e-27
1471 50 0.0015 0.556864 -1.90052 0 7.2462e-13 1.22358e-12 0 0 2.03049e-27
10323 345 0.0015 -0.0618728 -1.89705 0 1.47138e-12 -5.75997e-12 0 3.14298e-20 1.72548e-26
1951 66 0.0015 0.0156385 -1.89738 0 8.05986e-14 -9.58775e-13 0 0 1.23474e-27
10262 343 0.0015 0.418405 -1.89694 0 -1.53176e-13 -1.31562e-12 0 2.48474e-20 7.37937e-27
1472 50 0.0015 0.559091 -1.8976 0 3.44954e-14 -3.34508e-13 0 0 3.41801e-27
2641 89 0.0015 -0.570912 -1.89491 0 -2.16896e-12 1.38053e-12 0 0 8.54593e-27
1473 50 0.0015 0.561317 -1.89469 0 -3.54442e-13 -6.06422e-13 0 0 1.61276e-27
2642 89 0.0015 -0.574633 -1.89206 0 1.50564e-12 -5.64081e-13 0 0 9.91009e-27
6032 202 0.0015 -0.318223 -1.89337 0 -1.21903e-12 1.9697e-12 0 0 1.05997e-26
10324 345 0.0015 -0.0625496 -1.89394 0 -9.00072e-13 2.13019e-12 0 1.57149e-20 3.59362e-27
1952 66 0.0015 0.0151583 -1.8926 0 1.86177e-13 -1.37485e-12 0 0 8.59369e-27
8042 269 0.0015 0.154791 -1.89391 0 -7.41823e-14 7.83861e-13 0 7.37441e-21 5.52904e-27
10263 343 0.0015 0.419126 -1.89298 0 -7.83643e-13 -4.6305e-12 0 2.48474e-20 1.61848e-26
3540 118 0.0015 0.637977 -1.89243 0 1.62732e-13 -1.17567e-13 0 1.57149e-20 3.07965e-30
6061 203 0.0015 -0.387409 -1.89062 0 2.56353e-12 -2.00663e-12 0 0 5.63449e-27
10325 345 0.0015 -0.0632265 -1.89084 0 1.18473e-12 -3.45765e-12 0 1.57149e-20 1.00133e-26
10231 342 0.0015 0.215 -1.89 0 -9.84194e-13 0 0 0 1.85562e-28
10232 342 0.0015 0.21569 -1.89 0 -2.89768e-13 0 0 0 4.96478e-28
10233 342 0.0015 0.216379 -1.89 0 4.05653e-12 0 0 0 1.79443e-27
10234 342 0.0015 0.217069 -1.89 0 -4.45452e-12 0 0 0 2.01932e-27
10235 342 0.0015 0.217759 -1.89 0 1.7015e-12 0 0 0 5.35976e-28
10236 342 0.0015 0.218448 -1.89 0 -7.24198e-13 0 0 0 9.25528e-29
10237 342 0.0015 0.219138 -1.89 0 1.2684e-12 0 0 0 1.55347e-28
10238 342 0.0015 0.219828 -1.89 0 5.4265e-13 0 0 0 3.01828e-28
10239 342 0.0015 0.220517 -1.89 0 -4.01987e-12 0 0 0 1.85432e-27
10240 342 0.0015 0.221207 -1.89 0 4.92584e-12 0 0 0 2.39881e-27
10241 342 0.0015 0.221897 -1.89 0 -3.29634e-12 0 0 0 1.09427e-27
10242 342 0.0015 0.222586 -1.89 0 3.87565e-12 0 0 0 1.60762e-27
10243 342 0.0015 0.223276 -1.89 0 -4.88917e-12 0 0 0 2.2997e-27
10244 342 0.0015 0.223966 -1.89 0 3.25901e-12 0 0 0 1.18389e-27
10245 342 0.0015 0.224655 -1.89 0 -1.95527e-12 0 0 0 3.6646e-28
10246 342 0.0015 0.225345 -1.89 0 1.95527e-12 0 0 0 3.6646e-28
10247 342 0.0015 0.226034 -1.89 0 -3.25901e-12 0 0 0 1.18389e-27
10248 342 0.0015 0.226724 -1.89 0 4.88917e-12 0 0 0 2.2997e-27
10249 342 0.0015 0.227414 -1.89 0 -3.87565e-12 0 0 0 1.60762e-27
10250 342 0.0015 0.228103 -1.89 0 3.29634e-12 0 0 0 1.09427e-27
10251 342 0.0015 0.228793 -1.89 0 -4.92584e-12 0 0 0 2.39881e-27
10252 342 0.0015 0.229483 -1.89 0 4.01987e-12 0 0 0 1.85432e-27
10253 342 0.0015 0.230172 -1.89 0 -5.4265e-13 0 0 0 3.01828e-28
10254 342 0.0015 0.230862 -1.89 0 -1.2684e-12 0 0 0 1.55347e-28
10255 342 0.0015 0.231552 -1.89 0 7.24198e-13 0 0 0 9.25528e-29
10256 342 0.0015 0.232241 -1.89 0 -1.7015e-12 0 0 0 5.35976e-28
10257 342 0.0015 0.232931 -1.89 0 4.45452e-12 0 0 0 2.01932e-27
10258 342 0.0015 0.233621 -1.89 0 -4.05653e-12 0 0 0 1.79443e-27
10259 342 0.0015 0.23431 -1.89 0 2.89768e-13 0 0 0 4.96478e-28
10260 342 0.0015 0.235 -1.89 0 9.84194e-13 0 0 0 1.85562e-28
6001 201 0.0015 0.490936 -1.89052 0 2.79457e-13 6.75924e-13 0 0 1.23775e-27
1474 50 0.0015 0.563543 -1.89178 0 -1.03969e-12 -1.36954e-12 0 6.81478e-21 1.81397e-27
3539 118 0.0015 0.640514 -1.89051 0 2.46255e-12 2.135e-12 0 1.57149e-20 9.68311e-27
2643 89 0.0015 -0.578354 -1.8892 0 2.35593e-12 -2.07738e-12 0 5.32605e-21 7.1669e-27
6063 203 0.0015 -0.391043 -1.8889 0 3.7895e-12 -3.29838e-12 0 0 9.58056e-27
6064 203 0.0015 -0.392859 -1.88804 0 -1.13972e-11 -2.47296e-12 0 2.48474e-20 2.41634e-26
6062 203 0.0015 -0.389226 -1.88976 0 -2.31988e-12 4.31089e-12 0 0 5.96353e-27
10264 343 0.0015 0.419847 -1.88903 0 6.64072e-13 5.20066e-12 0 1.24237e-20 1.77538e-26
1475 50 0.0015 0.56577 -1.88887 0 1.75953e-12 3.56799e-12 0 6.81478e-21 8.76093e-27
3538 118 0.0015 0.643052 -1.8886 0 -4.52199e-12 -3.01264e-12 0 1.57149e-20 1.36244e-26
2644 89 0.0015 -0.582074 -1.88635 0 -1.88681e-12 1.29492e-12 0 5.32605e-21 5.84254e-27
6066 203 0.0015 -0.396492 -1.88631 0 5.48129e-13 -9.91483e-12 0 2.48474e-20 1.03942e-26
6065 203 0.0015 -0.394676 -1.88717 0 9.3922e-12 8.80384e-12 0 2.48474e-20 1.50276e-26
7981 267 0.0015 -0.194876 -1.88635 0 2.38794e-12 -7.87026e-13 0 0 4.35835e-27
10326 345 0.0015 -0.0639033 -1.88773 0 -2.35433e-12 1.02883e-11 0 0 5.56953e-26
1953 66 0.0015 0.0146782 -1.88782 0 -6.84277e-13 6.24476e-12 0 5.20104e-21 2.7999e-26
8043 269 0.0015 0.154095 -1.88717 0 -3.21426e-13 3.08285e-12 0 7.37441e-21 1.14314e-26
3537 118 0.0015 0.645589 -1.88668 0 4.2662e-12 2.59878e-12 0 0 1.1154e-26
6068 203 0.0015 -0.400126 -1.88459 0 -1.53982e-12 -5.53407e-12 0 0 2.9342e-28
6067 203 0.0015 -0.398309 -1.88545 0 -1.55712e-12 7.52336e-12 0 0 1.03436e-26
6033 202 0.0015 -0.323025 -1.88564 0 -4.84466e-13 7.56156e-13 0 0 3.77885e-27
7983 267 0.0015 -0.199527 -1.8846 0 -1.94461e-12 -4.26092e-12 0 3.01377e-20 3.57646e-27
7982 267 0.0015 -0.197202 -1.88548 0 -3.36424e-12 2.29229e-12 0 1.00459e-20 5.80192e-27
10327 345 0.0015 -0.0645802 -1.88463 0 2.6966e-12 -1.34045e-11 0 0 8.27592e-26
10265 343 0.0015 0.420568 -1.88507 0 -8.40085e-13 -6.01092e-12 0 0 2.5304e-26
1476 50 0.0015 0.567996 -1.88596 0 -2.21711e-12 -5.4457e-12 0 6.81478e-21 1.64509e-26
3536 118 0.0015 0.648126 -1.88476 0 -2.50528e-12 -1.8172e-12 0 0 7.25932e-27
2645 89 0.0015 -0.585795 -1.88349 0 1.43852e-12 -7.90719e-13 0 5.32605e-21 2.77087e-27
6071 203 0.0015 -0.405575 -1.882 0 -3.0839e-13 9.75161e-12 0 0 2.94668e-26
6070 203 0.0015 -0.403759 -1.88287 0 9.71292e-12 -1.25471e-11 0 0 5.59962e-26
6069 203 0.0015 -0.401942 -1.88373 0 -5.02483e-12 7.92429e-12 0 0 2.99688e-26
7985 267 0.0015 -0.204179 -1.88284 0 -3.46386e-12 -2.7553e-12 0 2.00918e-20 6.74841e-27
7984 267 0.0015 -0.201853 -1.88372 0 7.0756e-12 5.17397e-12 0 3.01377e-20 8.47668e-27
1954 66 0.0015 0.0141981 -1.88304 0 6.66788e-13 -6.38782e-12 0 1.04021e-20 2.89064e-26
6002 201 0.0015 0.493952 -1.88275 0 -7.61963e-13 -1.80923e-12 0 0 4.74605e-27
1477 50 0.0015 0.570222 -1.88304 0 2.02179e-13 3.49107e-12 0 0 9.29401e-27
3535 118 0.0015 0.650663 -1.88285 0 -4.19275e-12 -3.24789e-12 0 0 2.71556e-26
2646 89 0.0015 -0.589516 -1.88064 0 -4.94128e-12 3.52306e-12 0 5.32605e-21 3.05031e-26
6073 203 0.0015 -0.409209 -1.88028 0 -5.30564e-12 2.99533e-12 0 2.48474e-20 2.29334e-26
6072 203 0.0015 -0.407392 -1.88114 0 -4.23355e-12 -2.57743e-12 0 0 3.26918e-27
7988 267 0.0015 -0.211156 -1.8802 0 -6.22841e-12 -1.91671e-12 0 1.00459e-20 9.16909e-27
7987 267 0.0015 -0.208831 -1.88108 0 6.94465e-12 1.89864e-12 0 1.00459e-20 1.19963e-26
7986 267 0.0015 -0.206505 -1.88196 0 -4.67718e-12 -6.93793e-13 0 1.00459e-20 8.22097e-27
8011 268 0.0015 -0.176367 -1.88159 0 1.59985e-13 4.51427e-13 0 0 8.36635e-28
10328 345 0.0015 -0.065257 -1.88152 0 -2.41936e-13 3.96062e-12 0 0 4.2764e-26
8044 269 0.0015 0.1534 -1.88043 0 4.33788e-13 -4.31303e-12 0 7.37441e-21 1.78018e-26
10266 343 0.0015 0.421289 -1.88111 0 1.53741e-12 7.97225e-12 0 0 3.72331e-26
1478 50 0.0015 0.572449 -1.88013 0 8.06873e-13 -2.24061e-12 0 0 2.0467e-27
3534 118 0.0015 0.653201 -1.88093 0 6.1114e-12 5.19007e-12 0 0 3.24693e-26
10292 344 0.0015 -0.465124 -1.8785 0 3.06417e-12 9.67779e-13 0 1.68424e-20 2.87022e-27
10291 344 0.0015 -0.4623 -1.87941 0 -1.2552e-12 -1.28231e-13 0 1.68424e-20 1.10075e-27
6074 203 0.0015 -0.411025 -1.87942 0 4.02847e-12 -4.02816e-12 0 2.48474e-20 2.34719e-26
6075 203 0.0015 -0.412842 -1.87856 0 5.18035e-13 1.5167e-12 0 2.48474e-20 1.42186e-27
7990 267 0.0015 -0.215808 -1.87844 0 -1.76979e-12 -3.51339e-13 0 0 8.14512e-28
7989 267 0.0015 -0.213482 -1.87932 0 4.72491e-12 2.56233e-12 0 0 5.45967e-27
10329 345 0.0015 -0.0659339 -1.87841 0 -1.1084e-12 1.21393e-12 0 0 6.88171e-27
1955 66 0.0015 0.0137179 -1.87827 0 -6.70944e-14 9.3663e-13 0 1.04021e-20 1.14739e-26
10201 341 0.0015 0.290108 -1.87875 0 -1.55927e-13 1.45501e-12 0 0 4.02927e-27
3533 118 0.0015 0.655738 -1.87902 0 2.74141e-12 1.55719e-12 0 0 3.29641e-26
2647 89 0.0015 -0.593237 -1.87778 0 7.34338e-12 -6.05618e-12 0 2.13042e-20 5.89971e-26
10294 344 0.0015 -0.470773 -1.87669 0 -1.84147e-12 1.16481e-12 0 0 6.33085e-27
10293 344 0.0015 -0.467948 -1.87759 0 -2.66134e-12 -1.53995e-12 0 1.68424e-20 2.06338e-27
6077 203 0.0015 -0.416475 -1.87683 0 -7.22377e-12 6.42761e-12 0 0 2.50207e-26
6076 203 0.0015 -0.414658 -1.87769 0 6.31649e-12 -2.51483e-12 0 0 1.81479e-26
6034 202 0.0015 -0.327828 -1.87791 0 3.40383e-13 -5.70272e-13 0 0 4.25991e-27
7992 267 0.0015 -0.22046 -1.87668 0 -6.46197e-12 5.91848e-12 0 0 2.32678e-26
7991 267 0.0015 -0.218134 -1.87756 0 2.648e-12 -4.98087e-12 0 0 8.96572e-27
10267 343 0.0015 0.42201 -1.87716 0 -3.50663e-13 -1.40346e-13 0 0 2.77936e-26
1479 50 0.0015 0.574675 -1.87722 0 -2.96849e-13 2.2706e-12 0 0 2.07676e-27
3532 118 0.0015 0.658275 -1.8771 0 -7.57421e-12 -5.51179e-12 0 0 4.0188e-26
2648 89 0.0015 -0.596958 -1.87493 0 -4.91576e-12 5.09496e-12 0 2.66302e-20 3.70031e-26
10296 344 0.0015 -0.476421 -1.87487 0 -9.98832e-12 1.2943e-12 0 0 4.07305e-26
10295 344 0.0015 -0.473597 -1.87578 0 8.12394e-12 -1.16564e-12 0 0 2.99247e-26
6080 203 0.0015 -0.421925 -1.87425 0 -1.06739e-11 -1.07798e-11 0 0 1.01237e-26
6079 203 0.0015 -0.420108 -1.87511 0 3.74208e-12 1.17658e-11 0 0 3.93444e-27
6078 203 0.0015 -0.418291 -1.87597 0 1.90672e-12 -1.05069e-11 0 0 1.12277e-26
7995 267 0.0015 -0.227437 -1.87404 0 2.07347e-12 -2.83966e-12 0 0 5.22765e-27
7994 267 0.0015 -0.225111 -1.87492 0 -8.57259e-12 8.99612e-13 0 0 2.68048e-26
7993 267 0.0015 -0.222785 -1.8758 0 1.00258e-11 -2.3178e-12 0 0 3.62509e-26
10330 345 0.0015 -0.0666107 -1.87531 0 -7.55364e-13 5.14412e-12 0 0 1.5661e-26
6003 201 0.0015 0.496967 -1.87498 0 1.07233e-12 2.5429e-12 0 0 8.90925e-27
1480 50 0.0015 0.576901 -1.87431 0 2.38664e-12 2.01343e-12 0 6.81478e-21 1.08673e-26
3531 118 0.0015 0.660812 -1.87519 0 3.02705e-13 4.08764e-13 0 0 2.21313e-26
2649 89 0.0015 -0.600679 -1.87207 0 2.32178e-12 -3.05607e-12 0 2.13042e-20 9.09864e-27
10299 344 0.0015 -0.484893 -1.87215 0 -1.2638e-12 -1.3554e-12 0 0 2.5625e-28
10298 344 0.0015 -0.482069 -1.87306 0 -1.75687e-12 1.22587e-12 0 0 5.01367e-27
10297 344 0.0015 -0.479245 -1.87396 0 6.91041e-12 -1.23553e-12 0 0 2.17321e-26
6082 203 0.0015 -0.425558 -1.87252 0 -4.00319e-12 -1.84455e-11 0 2.48474e-20 1.77922e-26
6081 203 0.0015 -0.423741 -1.87338 0 1.21558e-11 1.30417e-11 0 2.48474e-20 1.05513e-26
7997 267 0.0015 -0.232089 -1.87228 0 4.17436e-12 -1.47495e-12 0 1.00459e-20 6.97172e-27
7996 267 0.0015 -0.229763 -1.87316 0 -6.65815e-13 3.9703e-12 0 0 2.33349e-27
10331 345 0.0015 -0.0672875 -1.8722 0 1.68941e-12 -4.93584e-12 0 1.57149e-20 1.56517e-26
1956 66 0.0015 0.0132378 -1.87349 0 -7.35786e-14 1.80292e-13 0 5.20104e-21 5.68904e-27
8045 269 0.0015 0.152704 -1.87369 0 -3.67379e-13 3.70942e-12 0 3.6872e-21 1.31319e-26
10202 341 0.0015 0.289307 -1.87202 0 2.13993e-13 -2.15188e-12 0 0 4.94834e-27
4531 152 0.0015 0.366216 -1.8733 0 -1.43923e-13 8.67458e-13 0 0 1.87346e-27
10268 343 0.0015 0.422731 -1.8732 0 -6.2505e-13 -4.95951e-12 0 0 1.58448e-26
3530 118 0.0015 0.66335 -1.87327 0 6.23e-12 3.47665e-12 0 1.57149e-20 2.21584e-26
10301 344 0.0015 -0.490541 -1.87033 0 -5.2248e-13 1.10748e-13 0 1.68424e-20 7.63322e-28
10300 344 0.0015 -0.487717 -1.87124 0 4.16359e-13 1.16717e-12 0 1.68424e-20 2.39354e-28
6084 203 0.0015 -0.429191 -1.8708 0 1.07708e-11 -2.27633e-12 0 2.48474e-20 3.39878e-26
6083 203 0.0015 -0.427374 -1.87166 0 -6.0288e-12 1.57392e-11 0 4.96948e-20 4.19031e-26
6035 202 0.0015 -0.332631 -1.87017 0 9.92943e-13 -1.48853e-12 0 0 4.73851e-27
7999 267 0.0015 -0.23674 -1.87052 0 1.3947e-12 2.79412e-12 0 1.00459e-20 4.05478e-29
7998 267 0.0015 -0.234415 -1.8714 0 -3.72731e-12 -1.87441e-12 0 1.00459e-20 4.7006e-27
1481 50 0.0015 0.579128 -1.8714 0 -9.62881e-14 -3.70856e-13 0 1.36296e-20 1.94268e-26
3529 118 0.0015 0.665887 -1.87136 0 -5.9603e-12 -2.27201e-12 0 1.57149e-20 1.74764e-26
2650 89 0.0015 -0.6044 -1.86922 0 -6.35225e-13 6.68784e-13 0 1.06521e-20 3.9326e-27
10303 344 0.0015 -0.49619 -1.86852 0 -2.9718e-12 2.08759e-12 0 0 5.02116e-27
10302 344 0.0015 -0.493366 -1.86943 0 2.15106e-12 -1.23479e-12 0 1.68424e-20 2.59354e-27
6087 203 0.0015 -0.434641 -1.86821 0 -4.81374e-12 -1.13135e-11 0 0 7.94557e-27
6085 203 0.0015 -0.431008 -1.86994 0 -1.10445e-11 -8.39736e-12 0 2.48474e-20 1.21416e-26
6086 203 0.0015 -0.432824 -1.86908 0 1.04364e-11 1.08924e-11 0 0 6.32814e-27
8001 267 0.0015 -0.241392 -1.86876 0 1.21067e-12 6.41193e-12 0 0 3.9197e-27
8000 267 0.0015 -0.239066 -1.86964 0 -2.49504e-12 -3.45958e-12 0 0 7.21558e-28
8012 268 0.0015 -0.171924 -1.86923 0 1.13945e-13 3.05368e-13 0 0 3.19932e-27
10332 345 0.0015 -0.0679644 -1.86909 0 -1.45666e-12 1.43686e-12 0 1.57149e-20 1.42473e-27
1957 66 0.0015 0.0127576 -1.86871 0 -5.24394e-13 5.55416e-12 0 0 2.61835e-26
10269 343 0.0015 0.423451 -1.86924 0 2.66201e-13 3.18829e-12 0 0 5.66498e-27
1482 50 0.0015 0.581354 -1.86848 0 -3.52741e-12 -4.42192e-12 0 1.36296e-20 1.62953e-26
3528 118 0.0015 0.668424 -1.86944 0 3.91008e-12 1.23344e-12 0 1.57149e-20 6.89529e-27
2651 89 0.0015 -0.608121 -1.86636 0 -1.35407e-13 8.00383e-13 0 5.32605e-21 6.22743e-28
10305 344 0.0015 -0.501838 -1.8667 0 -3.33537e-12 2.9826e-12 0 0 7.43703e-27
10304 344 0.0015 -0.499014 -1.86761 0 3.69821e-12 -3.38849e-12 0 0 8.75244e-27
6089 203 0.0015 -0.438274 -1.86649 0 2.12934e-12 -8.10506e-13 0 0 1.13173e-26
6088 203 0.0015 -0.436457 -1.86735 0 -3.83972e-12 8.27168e-12 0 0 1.41453e-26
8004 267 0.0015 -0.248369 -1.86612 0 -5.73821e-12 2.02206e-12 0 0 1.31285e-26
8003 267 0.0015 -0.246044 -1.867 0 1.70091e-12 2.38736e-12 0 0 6.65982e-27
8002 267 0.0015 -0.243718 -1.86788 0 1.52665e-12 -7.11334e-12 0 0 5.41842e-27
8046 269 0.0015 0.152008 -1.86695 0 1.42885e-13 -1.45013e-12 0 3.6872e-21 5.84565e-27
6004 201 0.0015 0.499982 -1.86721 0 -3.56705e-13 -7.55077e-13 0 5.99535e-21 6.5175e-27
3527 118 0.0015 0.670962 -1.86752 0 1.5115e-12 9.66277e-14 0 1.57149e-20 8.86748e-27
10307 344 0.0015 -0.507486 -1.86489 0 1.59651e-12 -8.41355e-13 0 0 2.62708e-27
10306 344 0.0015 -0.504662 -1.8658 0 -3.89041e-13 -1.62725e-13 0 0 4.39522e-27
6090 203 0.0015 -0.440091 -1.86563 0 1.30364e-12 -1.53999e-12 0 0 1.88668e-27
8006 267 0.0015 -0.253021 -1.86436 0 1.32906e-12 3.79779e-12 0 0 6.62476e-27
8005 267 0.0015 -0.250695 -1.86524 0 5.076e-12 -2.93217e-12 0 0 1.21472e-26
10333 345 0.0015 -0.0686412 -1.86599 0 1.22825e-12 -2.04727e-12 0 1.57149e-20 2.77891e-27
10203 341 0.0015 0.288506 -1.8653 0 -1.72069e-13 1.80887e-12 0 3.6872e-21 3.26995e-27
4532 152 0.0015 0.364868 -1.86469 0 2.52475e-13 -1.45225e-12 0 0 2.73001e-27
10270 343 0.0015 0.424172 -1.86529 0 -8.39202e-13 -7.65295e-12 0 0 4.39613e-26
1483 50 0.0015 0.58358 -1.86557 0 9.27618e-14 3.25305e-13 0 6.81478e-21 1.37204e-26
3526 118 0.0015 0.673499 -1.86561 0 -9.55134e-12 -3.0046e-12 0 3.14298e-20 4.59027e-26
2652 89 0.0015 -0.611842 -1.86351 0 -1.77168e-12 8.78758e-13 0 5.32605e-21 4.46868e-27
10310 344 0.0015 -0.515959 -1.86217 0 -2.548e-13 -7.91789e-13 0 0 6.70313e-27
10309 344 0.0015 -0.513134 -1.86307 0 2.60843e-12 3.66265e-13 0 0 3.45568e-27
10308 344 0.0015 -0.51031 -1.86398 0 -4.67925e-13 -3.24661e-13 0 0 1.03516e-28
6036 202 0.0015 -0.337434 -1.86244 0 -2.19425e-13 1.95214e-13 0 0 6.48977e-27
8008 267 0.0015 -0.257673 -1.8626 0 5.08738e-12 5.46614e-12 0 1.00459e-20 6.93283e-27
8007 267 0.0015 -0.255347 -1.86348 0 -7.75244e-12 -5.5428e-12 0 1.00459e-20 1.00199e-26
10334 345 0.0015 -0.0693181 -1.86288 0 -1.6989e-12 7.06511e-12 0 0 3.00813e-26
1958 66 0.0015 0.0122775 -1.86393 0 7.76993e-13 -7.70446e-12 0 5.20104e-21 4.03132e-26
1484 50 0.0015 0.585807 -1.86266 0 4.92843e-13 7.73072e-13 0 0 8.38237e-27
3525 118 0.0015 0.676036 -1.86369 0 9.55134e-12 3.0046e-12 0 3.14298e-20 4.59027e-26
2653 89 0.0015 -0.615563 -1.86065 0 7.4991e-13 -7.8506e-13 0 0 5.24438e-27
10312 344 0.0015 -0.521607 -1.86035 0 3.98403e-12 2.07974e-13 0 1.68424e-20 6.13193e-27
10311 344 0.0015 -0.518783 -1.86126 0 -4.2035e-12 1.2197e-12 0 0 7.93418e-27
8010 267 0.0015 -0.262324 -1.86085 0 6.81746e-13 1.88715e-13 0 0 2.25116e-28
8009 267 0.0015 -0.259998 -1.86172 0 -1.20042e-12 -2.48306e-12 0 1.00459e-20 2.98744e-28
8047 269 0.0015 0.151313 -1.86021 0 1.15425e-13 -1.04372e-12 0 0 1.2588e-27
10271 343 0.0015 0.424893 -1.86133 0 9.32539e-13 8.57991e-12 0 0 4.82824e-26
3524 118 0.0015 0.678573 -1.86178 0 -1.5115e-12 -9.66277e-14 0 1.57149e-20 8.86748e-27
10314 344 0.0015 -0.527255 -1.85854 0 9.2536e-12 -1.59647e-12 0 5.05273e-20 3.60003e-26
10313 344 0.0015 -0.524431 -1.85944 0 -6.04269e-12 -6.96828e-13 0 3.36849e-20 1.58692e-26
10335 345 0.0015 -0.0699949 -1.85978 0 7.49088e-13 -4.25541e-12 0 0 2.90414e-26
1959 66 0.0015 0.0117974 -1.85915 0 -6.08859e-13 5.75755e-12 0 5.20104e-21 2.34314e-26
4771 160 0.0015 0.0785585 -1.85825 0 -2.42362e-14 8.06123e-13 0 2.71488e-21 1.6624e-27
10204 341 0.0015 0.287705 -1.85857 0 -6.55327e-15 -3.40784e-13 0 7.37441e-21 3.49604e-27
6005 201 0.0015 0.502997 -1.85945 0 -1.1047e-12 -2.914e-12 0 1.19907e-20 1.46923e-26
1485 50 0.0015 0.588033 -1.85975 0 3.19144e-12 3.6588e-12 0 0 1.36093e-26
3523 118 0.0015 0.681111 -1.85986 0 -3.91008e-12 -1.23344e-12 0 1.57149e-20 6.89529e-27
2654 89 0.0015 -0.619284 -1.8578 0 9.95586e-13 -1.05137e-13 0 0 7.94128e-28
10316 344 0.0015 -0.532903 -1.85672 0 2.50244e-12 -2.68476e-12 0 1.68424e-20 5.61159e-27
10315 344 0.0015 -0.530079 -1.85763 0 -6.83101e-12 3.73925e-12 0 3.36849e-20 2.69039e-26
8013 268 0.0015 -0.167482 -1.85688 0 -2.94687e-13 -8.16805e-13 0 0 2.37739e-27
10336 345 0.0015 -0.0706718 -1.85667 0 1.46184e-12 -4.8228e-12 0 0 1.38484e-26
4533 152 0.0015 0.36352 -1.85607 0 -1.68589e-13 9.1197e-13 0 0 1.12449e-27
10272 343 0.0015 0.425614 -1.85738 0 2.30764e-13 -1.0624e-12 0 0 9.90718e-27
1486 50 0.0015 0.59026 -1.85684 0 -3.19144e-12 -3.6588e-12 0 0 1.36093e-26
3522 118 0.0015 0.683648 -1.85795 0 5.9603e-12 2.27201e-12 0 1.57149e-20 1.74764e-26
3521 118 0.0015 0.686185 -1.85603 0 -6.23e-12 -3.47665e-12 0 1.57149e-20 2.21584e-26
2655 89 0.0015 -0.623004 -1.85494 0 2.19773e-13 -9.35954e-13 0 0 8.85952e-28
10318 344 0.0015 -0.538552 -1.85491 0 1.50283e-12 1.35008e-12 0 0 7.11954e-28
10317 344 0.0015 -0.535727 -1.85581 0 -1.6789e-12 4.0254e-14 0 0 1.09238e-27
6037 202 0.0015 -0.342237 -1.85471 0 -1.84774e-12 3.12541e-12 0 0 2.01588e-26
1960 66 0.0015 0.0113172 -1.85437 0 1.27342e-13 -9.1831e-13 0 1.04021e-20 9.19634e-27
3520 118 0.0015 0.688722 -1.85412 0 -3.02705e-13 -4.08764e-13 0 0 2.21313e-26
2656 89 0.0015 -0.626725 -1.85209 0 -5.18408e-13 7.6141e-13 0 0 8.82014e-28
10320 344 0.0015 -0.5442 -1.85309 0 -1.53787e-12 7.20755e-13 0 0 2.33845e-27
10319 344 0.0015 -0.541376 -1.854 0 1.19039e-12 -1.49853e-12 0 0 2.34556e-27
10337 345 0.0015 -0.0713486 -1.85356 0 -8.19364e-13 8.9289e-13 0 1.57149e-20 1.88652e-26
8048 269 0.0015 0.150617 -1.85348 0 1.62242e-15 -1.50422e-13 0 3.6872e-21 2.69209e-27
10273 343 0.0015 0.426335 -1.85342 0 -7.37454e-13 -3.13258e-12 0 0 5.77867e-27
1487 50 0.0015 0.592486 -1.85392 0 -4.92843e-13 -7.73072e-13 0 0 8.38237e-27
3519 118 0.0015 0.69126 -1.8522 0 7.57421e-12 5.51179e-12 0 0 4.0188e-26
10338 345 0.0015 -0.0720254 -1.85046 0 6.19591e-13 -7.848e-14 0 1.57149e-20 1.39344e-26
10205 341 0.0015 0.286904 -1.85184 0 4.11273e-13 -2.92371e-12 0 7.37441e-21 1.00212e-26
6006 201 0.0015 0.506013 -1.85168 0 3.17427e-13 8.09918e-13 0 1.19907e-20 1.91503e-26
1488 50 0.0015 0.594712 -1.85101 0 -9.27618e-14 -3.25305e-13 0 6.81478e-21 1.37204e-26
3518 118 0.0015 0.693797 -1.85028 0 -2.74141e-12 -1.55719e-12 0 0 3.29641e-26
2657 89 0.0015 -0.630446 -1.84923 0 -4.5525e-13 6.90058e-13 0 0 9.12178e-28
1961 66 0.0015 0.0108371 -1.84959 0 2.83054e-13 -2.71094e-12 0 5.20104e-21 4.95796e-27
4772 160 0.0015 0.0782973 -1.84905 0 3.0514e-14 -1.02509e-12 0 2.71488e-21 1.78505e-27
10274 343 0.0015 0.427056 -1.84946 0 8.83251e-13 5.81421e-12 0 0 2.28939e-26
1489 50 0.0015 0.596939 -1.8481 0 3.52741e-12 4.42192e-12 0 1.36296e-20 1.62953e-26
3517 118 0.0015 0.696334 -1.84837 0 -6.1114e-12 -5.19007e-12 0 0 3.24693e-26
2658 89 0.0015 -0.634167 -1.84638 0 4.44964e-13 -1.09387e-12 0 0 9.52481e-28
6038 202 0.0015 -0.34704 -1.84697 0 1.6311e-12 -2.71772e-12 0 2.74394e-21 1.84049e-26
10339 345 0.0015 -0.0727023 -1.84735 0 -2.5424e-12 9.92288e-12 0 1.57149e-20 5.48735e-26
8049 269 0.0015 0.149922 -1.84674 0 -1.39982e-13 1.54623e-12 0 7.37441e-21 2.34263e-27
6541 219 0.0015 0.213251 -1.84656 0 5.54946e-15 -2.81227e-13 0 0 1.55685e-28
4534 152 0.0015 0.362172 -1.84745 0 3.05598e-13 -1.97071e-12 0 0 6.95931e-27
3516 118 0.0015 0.698871 -1.84645 0 4.19275e-12 3.24789e-12 0 0 2.71556e-26
8014 268 0.0015 -0.163039 -1.84452 0 -2.66927e-13 -7.39731e-13 0 0 2.64937e-27
10340 345 0.0015 -0.0733791 -1.84424 0 2.80718e-12 -1.20622e-11 0 0 6.99806e-26
1962 66 0.0015 0.010357 -1.84481 0 -2.28773e-13 1.64026e-12 0 5.20104e-21 2.67466e-27
10206 341 0.0015 0.286103 -1.84511 0 -4.38456e-13 3.20918e-12 0 3.6872e-21 1.10175e-26
10275 343 0.0015 0.427777 -1.84551 0 -1.23019e-12 -9.8475e-12 0 0 5.60801e-26
1490 50 0.0015 0.599165 -1.84519 0 9.62881e-14 3.70856e-13 0 1.36296e-20 1.94268e-26
3515 118 0.0015 0.701409 -1.84454 0 2.50528e-12 1.8172e-12 0 0 7.25932e-27
2659 89 0.0015 -0.637888 -1.84352 0 2.22685e-14 5.72808e-13 0 5.32605e-21 7.22709e-29
6007 201 0.0015 0.509028 -1.84391 0 1.49722e-12 3.93814e-12 0 5.99535e-21 2.19675e-26
1491 50 0.0015 0.601391 -1.84228 0 -2.38664e-12 -2.01343e-12 0 6.81478e-21 1.08673e-26
3514 118 0.0015 0.703946 -1.84262 0 -4.2662e-12 -2.59878e-12 0 0 1.1154e-26
2660 89 0.0015 -0.641609 -1.84066 0 -2.02096e-13 1.50012e-13 0 5.32605e-21 2.35393e-28
10341 345 0.0015 -0.074056 -1.84114 0 -2.80513e-12 1.24847e-11 0 1.57149e-20 7.54665e-26
1963 66 0.0015 0.00987681 -1.84004 0 3.28067e-13 -2.50404e-12 0 5.20104e-21 6.91009e-27
10276 343 0.0015 0.428498 -1.84155 0 1.23019e-12 9.8475e-12 0 0 5.60801e-26
3513 118 0.0015 0.706483 -1.84071 0 4.52199e-12 3.01264e-12 0 1.57149e-20 1.36244e-26
6039 202 0.0015 -0.351842 -1.83924 0 1.63714e-13 -2.51816e-13 0 2.74394e-21 2.40267e-27
10342 345 0.0015 -0.0747328 -1.83803 0 2.12502e-12 -1.02372e-11 0 3.14298e-20 5.93946e-26
4773 160 0.0015 0.0780361 -1.83985 0 1.17858e-14 -3.51554e-13 0 2.71488e-21 9.55393e-28
8050 269 0.0015 0.149226 -1.84 0 6.35763e-14 -9.20028e-13 0 1.10616e-20 9.13651e-28
6542 219 0.0015 0.21269 -1.83947 0 5.15827e-14 -4.31964e-16 0 0 3.16404e-28
10207 341 0.0015 0.285302 -1.83839 0 2.53512e-13 -1.83409e-12 0 0 3.29957e-27
4535 152 0.0015 0.360823 -1.83883 0 -3.16938e-13 2.23123e-12 0 0 7.53968e-27
1492 50 0.0015 0.603618 -1.83936 0 2.96849e-13 -2.2706e-12 0 0 2.07676e-27
3512 118 0.0015 0.70902 -1.83879 0 -2.46255e-12 -2.135e-12 0 1.57149e-20 9.68311e-27
2661 89 0.0015 -0.64533 -1.83781 0 7.41008e-13 -1.07361e-12 0 5.32605e-21 1.13234e-27
10277 343 0.0015 0.429219 -1.8376 0 -8.83251e-13 -5.81421e-12 0 0 2.28939e-26
6008 201 0.0015 0.512043 -1.83614 0 -1.59663e-12 -4.22212e-12 0 0 2.43371e-26
1493 50 0.0015 0.605844 -1.83645 0 -8.06873e-13 2.24061e-12 0 0 2.0467e-27
3511 118 0.0015 0.711558 -1.83688 0 -1.62732e-13 1.17567e-13 0 1.57149e-20 3.07965e-30
2662 89 0.0015 -0.649051 -1.83495 0 4.65765e-13 1.63524e-13 0 0 2.53801e-27
10343 345 0.0015 -0.0754097 -1.83493 0 8.26537e-14 2.21564e-12 0 5.50021e-20 6.8062e-27
1964 66 0.0015 0.00939668 -1.83526 0 -5.73257e-13 5.04089e-12 0 1.04021e-20 1.73702e-26
2663 89 0.0015 -0.652772 -1.8321 0 -2.60245e-12 1.97974e-12 0 0 7.67565e-27
10171 340 0.0015 -0.234195 -1.83312 0 -4.37605e-13 6.25378e-13 0 6.39056e-21 1.26515e-27
8015 268 0.0015 -0.158597 -1.83216 0 2.3635e-13 6.55835e-13 0 1.90242e-21 2.71982e-27
8051 269 0.0015 0.14853 -1.83326 0 -1.86278e-13 2.1818e-12 0 1.10616e-20 6.96838e-27
6543 219 0.0015 0.212128 -1.83239 0 -7.08728e-14 6.26827e-14 0 0 2.5388e-28
10278 343 0.0015 0.429939 -1.83364 0 7.37454e-13 3.13258e-12 0 0 5.77867e-27
1494 50 0.0015 0.60807 -1.83354 0 -2.02179e-13 -3.49107e-12 0 0 9.29401e-27
6040 202 0.0015 -0.356645 -1.83151 0 -8.1284e-13 1.34903e-12 0 5.48788e-21 3.14225e-27
10344 345 0.0015 -0.0760865 -1.83182 0 1.89412e-13 -4.79962e-12 0 5.50021e-20 2.50903e-26
1965 66 0.0015 0.00891654 -1.83048 0 4.48848e-13 -4.11234e-12 0 1.04021e-20 1.28922e-26
4774 160 0.0015 0.0777749 -1.83066 0 -6.83955e-14 2.391e-12 0 2.71488e-21 9.30977e-27
10208 341 0.0015 0.284501 -1.83166 0 -2.82643e-13 2.17712e-12 0 3.6872e-21 4.90376e-27
4536 152 0.0015 0.359475 -1.83021 0 5.8481e-14 -5.05134e-13 0 0 8.65241e-28
1495 50 0.0015 0.610297 -1.83063 0 2.21711e-12 5.4457e-12 0 6.81478e-21 1.64509e-26
2664 89 0.0015 -0.656493 -1.82924 0 2.18852e-12 -1.99835e-12 0 0 6.8874e-27
10345 345 0.0015 -0.0767633 -1.82871 0 -1.39718e-12 8.93927e-12 0 3.92872e-20 3.71035e-26
10279 343 0.0015 0.43066 -1.82968 0 -2.30764e-13 1.0624e-12 0 0 9.90718e-27
6009 201 0.0015 0.515058 -1.82837 0 2.05406e-12 5.39551e-12 0 0 4.35243e-26
2665 89 0.0015 -0.660213 -1.82639 0 1.71609e-13 -1.54487e-13 0 0 2.19543e-27
10172 340 0.0015 -0.238704 -1.82673 0 3.52961e-13 -5.65352e-13 0 6.39056e-21 1.28594e-27
8052 269 0.0015 0.147835 -1.82652 0 1.08001e-13 -1.39013e-12 0 7.37441e-21 7.3013e-27
1496 50 0.0015 0.612523 -1.82772 0 -1.75953e-12 -3.56799e-12 0 6.81478e-21 8.76093e-27
10346 345 0.0015 -0.0774402 -1.82561 0 5.09767e-13 -2.40048e-12 0 3.14298e-20 1.37424e-26
1966 66 0.0015 0.0084364 -1.8257 0 -1.02477e-13 1.22823e-12 0 5.20104e-21 2.3505e-27
6544 219 0.0015 0.211567 -1.8253 0 -4.23317e-15 5.80735e-13 0 0 3.51998e-28
10209 341 0.0015 0.2837 -1.82493 0 2.95927e-13 -2.55511e-12 0 3.6872e-21 6.28389e-27
10280 343 0.0015 0.431381 -1.82573 0 -9.32539e-13 -8.57991e-12 0 0 4.82824e-26
1497 50 0.0015 0.614749 -1.8248 0 1.03969e-12 1.36954e-12 0 6.81478e-21 1.81397e-27
2666 89 0.0015 -0.663934 -1.82353 0 -4.14651e-13 6.92956e-13 0 0 1.46931e-27
6041 202 0.0015 -0.361448 -1.82377 0 1.08816e-12 -1.79458e-12 0 2.74394e-21 6.01558e-27
10347 345 0.0015 -0.078117 -1.8225 0 8.01772e-13 -4.84715e-12 0 1.57149e-20 1.30704e-26
2667 89 0.0015 -0.667655 -1.82068 0 -2.30872e-13 -2.86925e-13 0 5.32605e-21 1.91003e-28
10173 340 0.0015 -0.243212 -1.82034 0 -1.14131e-13 3.50394e-13 0 6.39056e-21 4.60419e-28
1967 66 0.0015 0.00795626 -1.82092 0 -3.19584e-13 2.75857e-12 0 0 9.62843e-27
4775 160 0.0015 0.0775136 -1.82146 0 1.12012e-13 -4.09879e-12 0 2.71488e-21 2.17535e-26
4537 152 0.0015 0.358127 -1.82159 0 -1.25979e-13 6.16482e-13 0 5.72705e-21 1.24578e-27
10281 343 0.0015 0.432102 -1.82177 0 8.39202e-13 7.65295e-12 0 0 4.39613e-26
6010 201 0.0015 0.518074 -1.8206 0 -1.97735e-12 -5.23194e-12 0 0 4.20537e-26
1498 50 0.0015 0.616976 -1.82189 0 3.54442e-13 6.06422e-13 0 0 1.61276e-27
8016 268 0.0015 -0.154154 -1.81981 0 9.28615e-14 2.61519e-13 0 3.80484e-21 1.41888e-28
10348 345 0.0015 -0.0787939 -1.81939 0 -9.43136e-13 5.27649e-12 0 1.57149e-20 1.42638e-26
8053 269 0.0015 0.147139 -1.81978 0 1.90143e-13 -1.6307e-12 0 3.6872e-21 2.90178e-27
6545 219 0.0015 0.211005 -1.81821 0 1.81459e-13 -2.20438e-12 0 3.51396e-21 7.01544e-27
10210 341 0.0015 0.282899 -1.8182 0 2.3005e-14 3.28932e-13 0 3.6872e-21 3.85801e-27
1499 50 0.0015 0.619202 -1.81898 0 -3.44954e-14 3.34508e-13 0 0 3.41801e-27
2668 89 0.0015 -0.671376 -1.81782 0 -5.40822e-13 1.07012e-12 0 5.32605e-21 9.55865e-28
6042 202 0.0015 -0.366251 -1.81604 0 -1.33345e-12 2.12958e-12 0 2.74394e-21 8.02355e-27
10349 345 0.0015 -0.0794707 -1.81629 0 3.65871e-13 -1.96137e-12 0 0 2.69866e-27
1968 66 0.0015 0.00747613 -1.81614 0 4.01719e-13 -3.9436e-12 0 0 1.18001e-26
10282 343 0.0015 0.432823 -1.81781 0 -2.66201e-13 -3.18829e-12 0 0 5.66498e-27
1500 50 0.0015 0.621428 -1.81607 0 -7.2462e-13 -1.22358e-12 0 0 2.03049e-27
2669 89 0.0015 -0.675097 -1.81497 0 -5.98866e-13 -1.37664e-13 0 5.32605e-21 2.75619e-27
5941 199 0.0015 0.740778 -1.81551 0 -2.15734e-13 -8.28527e-13 0 0 1.95541e-27
2670 89 0.0015 -0.678818 -1.81211 0 1.05389e-12 -6.06545e-13 0 0 1.89283e-27
10174 340 0.0015 -0.24772 -1.81396 0 7.22196e-13 -1.22113e-12 0 0 2.45843e-27
10350 345 0.0015 -0.0801475 -1.81318 0 -5.67522e-14 2.60543e-13 0 0 6.27959e-29
4776 160 0.0015 0.0772524 -1.81226 0 -1.05153e-13 3.79734e-12 0 2.71488e-21 1.91789e-26
8054 269 0.0015 0.146443 -1.81304 0 -1.24945e-13 1.14697e-12 0 0 2.41515e-27
4538 152 0.0015 0.356779 -1.81297 0 5.29402e-13 -3.0119e-12 0 1.14541e-20 1.45587e-26
10283 343 0.0015 0.433544 -1.81386 0 6.2505e-13 4.95951e-12 0 0 1.58448e-26
6011 201 0.0015 0.521089 -1.81283 0 2.66148e-14 2.17169e-13 0 0 1.14094e-26
1969 66 0.0015 0.00699599 -1.81136 0 -5.92081e-14 6.42396e-13 0 0 2.71921e-27
6546 219 0.0015 0.210443 -1.81113 0 -8.37406e-14 4.98542e-13 0 7.02791e-21 1.03351e-26
10211 341 0.0015 0.282098 -1.81148 0 -2.77749e-13 1.6582e-12 0 0 2.65386e-27
6043 202 0.0015 -0.371054 -1.8083 0 1.0931e-12 -1.66232e-12 0 0 5.15023e-27
10284 343 0.0015 0.434265 -1.8099 0 3.50663e-13 1.40346e-13 0 0 2.77936e-26
10175 340 0.0015 -0.252228 -1.80757 0 -3.43796e-13 5.03369e-13 0 0 2.29198e-27
8017 268 0.0015 -0.149712 -1.80745 0 1.8543e-13 5.14176e-13 0 3.80484e-21 1.7005e-27
1970 66 0.0015 0.00651585 -1.80658 0 -3.08057e-13 3.37458e-12 0 0 1.06583e-26
8055 269 0.0015 0.145748 -1.8063 0 2.25482e-13 -2.15933e-12 0 0 8.69973e-27
5942 199 0.0015 0.743061 -1.80618 0 6.95309e-13 2.67109e-12 0 0 1.16259e-26
6547 219 0.0015 0.209882 -1.80404 0 -2.45726e-13 3.65256e-12 0 1.05419e-20 1.41555e-26