ITEM: TIMESTEP
63640
ITEM: NUMBER OF ATOMS
10500
ITEM: BOX BOUNDS pp pp pp
-1.0249999999999999e+00 1.0249999999999999e+00
-2.0000000000000000e+00 2.0000000000000000e+00
-5.0000000000000003e-02 5.0000000000000003e-02
ITEM: ATOMS id type radius x y z fx fy fz c_bendingE c_stretchingE
10321 345 0.0015 -0.0605191 -1.90326 0 2.18475e-13 -1.37405e-12 0 0 1.7039e-27
6031 202 0.0015 -0.31342 -1.90111 0 -8.38908e-13 1.35626e-12 0 0 6.43128e-27
10322 345 0.0015 -0.061196 -1.90016 0 1.40249e-13 1.83409e-12 0 0 1.82683e-27
8041 269 0.0015 0.155487 -1.90065 0 -7.13935e-16 -1.87278e-14 0 3.6872e-21 6.47648e-31
10261 343 0.0015 0.417684 -1.90089 0 7.00536e-13 3.73147e-12 0 0 1.61013e-26
1471 50 0.0015 0.556864 -1.90052 0 -7.09477e-13 -1.32832e-12 0 6.81478e-21 2.24888e-27
10323 345 0.0015 -0.0618728 -1.89705 0 -2.06197e-12 4.1505e-12 0 0 2.10453e-26
1951 66 0.0015 0.0156385 -1.89738 0 -5.49204e-13 5.47865e-12 0 0 4.04473e-26
10262 343 0.0015 0.418405 -1.89694 0 -1.06398e-12 -5.32963e-12 0 1.24237e-20 1.90962e-26
1472 50 0.0015 0.559091 -1.8976 0 6.77726e-13 1.6823e-12 0 1.36296e-20 2.31874e-27
2641 89 0.0015 -0.570912 -1.89491 0 1.54252e-12 -1.14786e-12 0 0 4.81542e-27
1473 50 0.0015 0.561317 -1.89469 0 -8.47425e-13 -1.13036e-12 0 1.36296e-20 1.41818e-27
2642 89 0.0015 -0.574633 -1.89206 0 -4.22235e-12 3.06366e-12 0 0 1.89373e-26
6032 202 0.0015 -0.318223 -1.89337 0 6.10698e-13 -1.00218e-12 0 0 6.8799e-27
10324 345 0.0015 -0.0625496 -1.89394 0 3.92466e-12 -1.30574e-11 0 0 8.8167e-26
1952 66 0.0015 0.0151583 -1.8926 0 8.90982e-13 -8.98478e-12 0 0 5.70035e-26
8042 269 0.0015 0.154791 -1.89391 0 2.51341e-13 -2.37582e-12 0 3.6872e-21 1.09093e-26
10263 343 0.0015 0.419126 -1.89298 0 2.09063e-13 4.72958e-13 0 2.48474e-20 4.43297e-27
3540 118 0.0015 0.637977 -1.89243 0 3.24457e-12 3.26923e-12 0 0 1.8357e-26
6061 203 0.0015 -0.387409 -1.89062 0 4.38948e-12 -1.24516e-12 0 0 1.13076e-26
10325 345 0.0015 -0.0632265 -1.89084 0 -3.59663e-12 1.49982e-11 0 0 1.06815e-25
10231 342 0.0015 0.215 -1.89 0 1.44262e-12 0 0 0 3.98686e-28
10232 342 0.0015 0.21569 -1.89 0 -8.32862e-13 0 0 0 4.6986e-28
10233 342 0.0015 0.216379 -1.89 0 -1.81105e-12 0 0 0 3.47735e-28
10234 342 0.0015 0.217069 -1.89 0 7.24199e-13 0 0 0 3.20167e-28
10235 342 0.0015 0.217759 -1.89 0 2.60791e-12 0 0 0 9.13409e-28
10236 342 0.0015 0.218448 -1.89 0 -2.9339e-12 0 0 0 9.93357e-28
10237 342 0.0015 0.219138 -1.89 0 2.60814e-12 0 0 0 7.47576e-28
10238 342 0.0015 0.219828 -1.89 0 -6.01269e-12 0 0 0 4.016e-27
10239 342 0.0015 0.220517 -1.89 0 1.01052e-11 0 0 0 1.00556e-26
10240 342 0.0015 0.221207 -1.89 0 -1.11196e-11 0 0 0 1.18877e-26
10241 342 0.0015 0.221897 -1.89 0 1.02148e-11 0 0 0 9.99859e-27
10242 342 0.0015 0.222586 -1.89 0 -1.17001e-11 0 0 0 1.33924e-26
10243 342 0.0015 0.223276 -1.89 0 1.31482e-11 0 0 0 1.65658e-26
10244 342 0.0015 0.223966 -1.89 0 -1.246e-11 0 0 0 1.4888e-26
10245 342 0.0015 0.224655 -1.89 0 1.24965e-11 0 0 0 1.49776e-26
10246 342 0.0015 0.225345 -1.89 0 -1.24965e-11 0 0 0 1.49776e-26
10247 342 0.0015 0.226034 -1.89 0 1.246e-11 0 0 0 1.4888e-26
10248 342 0.0015 0.226724 -1.89 0 -1.31482e-11 0 0 0 1.65658e-26
10249 342 0.0015 0.227414 -1.89 0 1.17001e-11 0 0 0 1.33924e-26
10250 342 0.0015 0.228103 -1.89 0 -1.02148e-11 0 0 0 9.99859e-27
10251 342 0.0015 0.228793 -1.89 0 1.11196e-11 0 0 0 1.18877e-26
10252 342 0.0015 0.229483 -1.89 0 -1.01052e-11 0 0 0 1.00556e-26
10253 342 0.0015 0.230172 -1.89 0 6.01269e-12 0 0 0 4.016e-27
10254 342 0.0015 0.230862 -1.89 0 -2.60814e-12 0 0 0 7.47576e-28
10255 342 0.0015 0.231552 -1.89 0 2.9339e-12 0 0 0 9.93357e-28
10256 342 0.0015 0.232241 -1.89 0 -2.60791e-12 0 0 0 9.13409e-28
10257 342 0.0015 0.232931 -1.89 0 -7.24199e-13 0 0 0 3.20167e-28
10258 342 0.0015 0.233621 -1.89 0 1.81105e-12 0 0 0 3.47735e-28
10259 342 0.0015 0.23431 -1.89 0 8.32862e-13 0 0 0 4.6986e-28
10260 342 0.0015 0.235 -1.89 0 -1.44262e-12 0 0 0 3.98686e-28
6001 201 0.0015 0.490936 -1.89052 0 -6.40209e-13 -1.72446e-12 0 0 7.83055e-27
1474 50 0.0015 0.563543 -1.89178 0 1.87848e-12 1.56154e-12 0 6.81478e-21 2.89054e-27
3539 118 0.0015 0.640514 -1.89051 0 -6.02383e-12 -6.92354e-12 0 0 3.56091e-26
2643 89 0.0015 -0.578354 -1.8892 0 6.05436e-12 -4.34306e-12 0 0 3.66118e-26
6063 203 0.0015 -0.391043 -1.8889 0 9.89726e-12 9.93627e-12 0 0 1.03934e-26
6064 203 0.0015 -0.392859 -1.88804 0 -1.02938e-11 -1.39624e-11 0 0 1.08477e-26
6062 203 0.0015 -0.389226 -1.88976 0 -6.74411e-12 -2.8165e-12 0 0 1.1391e-26
10264 343 0.0015 0.419847 -1.88903 0 5.35553e-13 2.88428e-12 0 3.72711e-20 5.05292e-27
1475 50 0.0015 0.56577 -1.88887 0 -2.68729e-12 -2.65897e-12 0 0 7.97651e-27
3538 118 0.0015 0.643052 -1.8886 0 3.47358e-12 5.51859e-12 0 0 1.97369e-26
2644 89 0.0015 -0.582074 -1.88635 0 -5.0739e-12 3.83494e-12 0 5.32605e-21 2.88252e-26
6066 203 0.0015 -0.396492 -1.88631 0 1.813e-12 -4.26784e-12 0 0 6.10014e-27
6065 203 0.0015 -0.394676 -1.88717 0 1.85619e-12 1.39015e-11 0 0 6.6222e-27
7981 267 0.0015 -0.194876 -1.88635 0 2.53611e-12 1.6068e-12 0 1.00459e-20 2.24717e-27
10326 345 0.0015 -0.0639033 -1.88773 0 1.54127e-12 -8.42008e-12 0 0 4.26297e-26
1953 66 0.0015 0.0146782 -1.88782 0 -8.75898e-13 9.04559e-12 0 0 5.78749e-26
8043 269 0.0015 0.154095 -1.88717 0 -5.54051e-13 5.31407e-12 0 3.6872e-21 2.71224e-26
3537 118 0.0015 0.645589 -1.88668 0 -6.50435e-13 -2.69878e-12 0 0 2.67809e-27
6068 203 0.0015 -0.400126 -1.88459 0 -1.03591e-12 7.53294e-12 0 0 5.09128e-27
6067 203 0.0015 -0.398309 -1.88545 0 -1.56818e-12 -6.67694e-12 0 0 1.46683e-27
6033 202 0.0015 -0.323025 -1.88564 0 2.17361e-12 -3.46185e-12 0 0 3.44424e-26
7983 267 0.0015 -0.199527 -1.8846 0 3.29522e-12 9.97443e-12 0 2.00918e-20 1.62809e-27
7982 267 0.0015 -0.197202 -1.88548 0 -3.25197e-12 -7.13384e-12 0 2.00918e-20 3.38869e-27
10327 345 0.0015 -0.0645802 -1.88463 0 5.22327e-13 -3.9543e-13 0 0 7.97284e-27
10265 343 0.0015 0.420568 -1.88507 0 -3.70029e-13 -1.39904e-12 0 2.48474e-20 3.75658e-27
1476 50 0.0015 0.567996 -1.88596 0 2.33292e-12 1.92463e-12 0 0 6.62439e-27
3536 118 0.0015 0.648126 -1.88476 0 -2.95371e-12 -1.28901e-12 0 0 1.16495e-26
2645 89 0.0015 -0.585795 -1.88349 0 6.20378e-13 -8.2702e-13 0 5.32605e-21 8.24114e-27
6071 203 0.0015 -0.405575 -1.882 0 -1.07492e-11 -8.13278e-12 0 0 1.09399e-26
6070 203 0.0015 -0.403759 -1.88287 0 5.49764e-12 4.17167e-12 0 0 6.62823e-27
6069 203 0.0015 -0.401942 -1.88373 0 1.69399e-12 -2.98379e-12 0 0 3.67676e-27
7985 267 0.0015 -0.204179 -1.88284 0 2.39785e-12 2.59456e-12 0 0 1.76336e-27
7984 267 0.0015 -0.201853 -1.88372 0 -4.94529e-12 -6.24324e-12 0 1.00459e-20 2.20581e-27
1954 66 0.0015 0.0141981 -1.88304 0 8.84975e-13 -9.32678e-12 0 0 6.06184e-26
6002 201 0.0015 0.493952 -1.88275 0 7.56425e-13 2.19183e-12 0 0 8.35889e-27
1477 50 0.0015 0.570222 -1.88304 0 8.9467e-13 3.10237e-12 0 6.81478e-21 1.22398e-26
3535 118 0.0015 0.650663 -1.88285 0 5.70836e-12 5.07315e-12 0 0 2.56618e-26
2646 89 0.0015 -0.589516 -1.88064 0 3.88429e-12 -2.68538e-12 0 5.32605e-21 1.79282e-26
6073 203 0.0015 -0.409209 -1.88028 0 2.5048e-12 6.20139e-12 0 0 1.09641e-26
6072 203 0.0015 -0.407392 -1.88114 0 2.30083e-12 5.17349e-12 0 0 9.14032e-27
7988 267 0.0015 -0.211156 -1.8802 0 -2.05924e-12 -3.89124e-12 0 0 4.14191e-27
7987 267 0.0015 -0.208831 -1.88108 0 -1.45064e-12 4.04535e-12 0 0 2.68657e-27
7986 267 0.0015 -0.206505 -1.88196 0 7.88799e-13 -2.4536e-12 0 0 1.30866e-27
8011 268 0.0015 -0.176367 -1.88159 0 -5.4915e-13 -1.54181e-12 0 0 9.77034e-27
10328 345 0.0015 -0.065257 -1.88152 0 -1.29264e-12 4.39086e-12 0 0 9.21347e-27
8044 269 0.0015 0.1534 -1.88043 0 5.33817e-13 -5.22963e-12 0 0 2.63563e-26
10266 343 0.0015 0.421289 -1.88111 0 -2.2219e-13 -5.44763e-13 0 2.48474e-20 1.95581e-28
1478 50 0.0015 0.572449 -1.88013 0 5.39514e-13 -1.10747e-12 0 6.81478e-21 2.0542e-26
3534 118 0.0015 0.653201 -1.88093 0 -1.07914e-12 -3.03054e-12 0 0 1.57524e-26
10292 344 0.0015 -0.465124 -1.8785 0 5.06602e-12 -3.36228e-12 0 1.68424e-20 1.47756e-26
10291 344 0.0015 -0.4623 -1.87941 0 -1.97011e-12 1.35161e-12 0 0 4.31771e-27
6074 203 0.0015 -0.411025 -1.87942 0 -2.0363e-12 -1.40535e-11 0 0 6.58528e-27
6075 203 0.0015 -0.412842 -1.87856 0 1.21973e-11 1.17979e-11 0 0 2.64121e-26
7990 267 0.0015 -0.215808 -1.87844 0 5.8827e-13 -2.51479e-12 0 0 3.26302e-27
7989 267 0.0015 -0.213482 -1.87932 0 4.04613e-12 3.28527e-12 0 0 3.00097e-27
10329 345 0.0015 -0.0659339 -1.87841 0 6.11057e-13 -1.27053e-12 0 0 4.91571e-27
1955 66 0.0015 0.0137179 -1.87827 0 -5.26635e-13 5.90629e-12 0 0 2.53293e-26
10201 341 0.0015 0.290108 -1.87875 0 -4.444e-14 3.12188e-13 0 0 1.87034e-28
3533 118 0.0015 0.655738 -1.87902 0 -7.15315e-12 -3.0029e-12 0 0 3.54355e-26
2647 89 0.0015 -0.593237 -1.87778 0 -9.99939e-13 9.25087e-13 0 0 2.20468e-26
10294 344 0.0015 -0.470773 -1.87669 0 -3.86941e-12 1.93921e-13 0 1.68424e-20 6.22875e-27
10293 344 0.0015 -0.467948 -1.87759 0 -1.62862e-12 2.17864e-12 0 1.68424e-20 1.19497e-26
6077 203 0.0015 -0.416475 -1.87683 0 3.11332e-12 6.29453e-12 0 0 4.26323e-27
6076 203 0.0015 -0.414658 -1.87769 0 -1.37224e-11 -8.31667e-12 0 0 2.82558e-26
6034 202 0.0015 -0.327828 -1.87791 0 -3.17615e-12 5.07119e-12 0 0 4.75727e-26
7992 267 0.0015 -0.22046 -1.87668 0 -1.23967e-12 2.12236e-12 0 0 2.52141e-27
7991 267 0.0015 -0.218134 -1.87756 0 -2.54549e-12 -8.56036e-13 0 0 2.98194e-27
10267 343 0.0015 0.42201 -1.87716 0 2.47664e-13 -1.47369e-12 0 1.24237e-20 3.00347e-27
1479 50 0.0015 0.574675 -1.87722 0 -3.35098e-12 -3.63328e-12 0 6.81478e-21 1.27035e-26
3532 118 0.0015 0.658275 -1.8771 0 3.4777e-12 1.28229e-12 0 1.57149e-20 4.00744e-26
2648 89 0.0015 -0.596958 -1.87493 0 -5.83768e-12 3.71695e-12 0 0 3.53412e-26
10296 344 0.0015 -0.476421 -1.87487 0 -1.18344e-12 1.20535e-12 0 0 1.11876e-27
10295 344 0.0015 -0.473597 -1.87578 0 2.71159e-12 -7.11552e-13 0 0 4.86982e-27
6080 203 0.0015 -0.421925 -1.87425 0 -1.02035e-11 3.97097e-13 0 0 2.53732e-26
6079 203 0.0015 -0.420108 -1.87511 0 6.38412e-12 2.67099e-12 0 0 1.74483e-26
6078 203 0.0015 -0.418291 -1.87597 0 6.27724e-13 -5.18523e-12 0 0 2.45319e-27
7995 267 0.0015 -0.227437 -1.87404 0 -2.18761e-12 5.93604e-12 0 1.00459e-20 5.93875e-27
7994 267 0.0015 -0.225111 -1.87492 0 1.38441e-13 -6.32411e-12 0 1.00459e-20 2.92918e-27
7993 267 0.0015 -0.222785 -1.8758 0 2.54274e-12 2.26824e-12 0 0 2.59876e-27
10330 345 0.0015 -0.0666107 -1.87531 0 -8.56658e-13 2.46717e-12 0 0 1.09936e-26
6003 201 0.0015 0.496967 -1.87498 0 1.28617e-13 -5.0715e-14 0 0 1.05503e-27
1480 50 0.0015 0.576901 -1.87431 0 -2.2894e-13 1.31992e-13 0 0 8.56509e-27
3531 118 0.0015 0.660812 -1.87519 0 7.75771e-12 6.46064e-12 0 3.14298e-20 5.50363e-26
2649 89 0.0015 -0.600679 -1.87207 0 5.02621e-12 -2.62305e-12 0 0 3.02375e-26
10299 344 0.0015 -0.484893 -1.87215 0 -1.8319e-12 4.13974e-12 0 0 6.18802e-27
10298 344 0.0015 -0.482069 -1.87306 0 1.5797e-12 -3.63117e-12 0 0 6.13127e-27
10297 344 0.0015 -0.479245 -1.87396 0 1.17431e-12 -2.83203e-13 0 0 9.95987e-28
6082 203 0.0015 -0.425558 -1.87252 0 1.13678e-11 -5.79364e-12 0 0 4.67037e-26
6081 203 0.0015 -0.423741 -1.87338 0 -8.32474e-13 1.59448e-12 0 0 2.41022e-26
7997 267 0.0015 -0.232089 -1.87228 0 -6.84093e-12 9.17708e-12 0 0 3.24354e-26
7996 267 0.0015 -0.229763 -1.87316 0 5.43617e-12 -6.56966e-12 0 1.00459e-20 2.24502e-26
10331 345 0.0015 -0.0672875 -1.8722 0 1.66828e-12 -8.15025e-12 0 0 3.1499e-26
1956 66 0.0015 0.0132378 -1.87349 0 5.33363e-13 -5.93453e-12 0 5.20104e-21 2.56224e-26
8045 269 0.0015 0.152704 -1.87369 0 -2.79424e-13 3.04258e-12 0 0 1.11555e-26
10202 341 0.0015 0.289307 -1.87202 0 3.69805e-13 -2.9406e-12 0 3.6872e-21 1.33871e-26
4531 152 0.0015 0.366216 -1.8733 0 3.00876e-13 -1.94229e-12 0 0 9.36082e-27
10268 343 0.0015 0.422731 -1.8732 0 5.79459e-14 3.28855e-12 0 3.72711e-20 5.88376e-27
3530 118 0.0015 0.66335 -1.87327 0 -8.24701e-12 -6.95056e-12 0 3.14298e-20 5.86567e-26
10301 344 0.0015 -0.490541 -1.87033 0 1.45673e-12 -4.38646e-12 0 0 3.17329e-27
10300 344 0.0015 -0.487717 -1.87124 0 -5.62036e-13 9.52051e-13 0 0 1.0843e-27
6084 203 0.0015 -0.429191 -1.8708 0 4.73017e-12 -1.58589e-11 0 0 3.57825e-26
6083 203 0.0015 -0.427374 -1.87166 0 -1.03969e-11 1.11241e-11 0 0 5.61546e-26
6035 202 0.0015 -0.332631 -1.87017 0 2.06587e-12 -3.31699e-12 0 0 1.99756e-26
7999 267 0.0015 -0.23674 -1.87052 0 -5.66711e-12 4.78811e-12 0 0 1.77478e-26
7998 267 0.0015 -0.234415 -1.8714 0 4.3692e-12 -8.41155e-12 0 0 1.81521e-26
1481 50 0.0015 0.579128 -1.8714 0 1.2488e-12 -8.96776e-14 0 0 6.29478e-27
3529 118 0.0015 0.665887 -1.87136 0 5.63061e-12 4.65531e-12 0 1.57149e-20 2.36994e-26
2650 89 0.0015 -0.6044 -1.86922 0 -1.09818e-12 -1.10324e-13 0 0 9.22514e-28
10303 344 0.0015 -0.49619 -1.86852 0 -9.31547e-13 -8.30999e-14 0 0 6.17093e-27
10302 344 0.0015 -0.493366 -1.86943 0 -2.10196e-12 3.50475e-12 0 0 3.9022e-27
6087 203 0.0015 -0.434641 -1.86821 0 5.72801e-12 -8.22842e-13 0 2.48474e-20 8.55766e-27
6085 203 0.0015 -0.431008 -1.86994 0 3.22103e-12 1.20363e-11 0 0 1.30818e-26
6086 203 0.0015 -0.432824 -1.86908 0 -7.19823e-12 -3.46167e-12 0 0 7.21697e-27
8001 267 0.0015 -0.241392 -1.86876 0 -4.06533e-12 -1.55294e-12 0 0 4.28676e-27
8000 267 0.0015 -0.239066 -1.86964 0 6.93045e-12 -2.914e-13 0 0 1.63309e-26
8012 268 0.0015 -0.171924 -1.86923 0 1.17113e-12 3.2927e-12 0 0 2.23627e-26
10332 345 0.0015 -0.0679644 -1.86909 0 4.82057e-13 9.80085e-13 0 1.57149e-20 3.5503e-26
1957 66 0.0015 0.0127576 -1.86871 0 -6.7124e-13 6.93542e-12 0 5.20104e-21 3.27097e-26
10269 343 0.0015 0.423451 -1.86924 0 -3.64158e-13 -3.33538e-12 0 2.48474e-20 6.2616e-27
1482 50 0.0015 0.581354 -1.86848 0 1.34597e-12 4.38344e-12 0 6.81478e-21 1.06176e-26
3528 118 0.0015 0.668424 -1.86944 0 -2.39763e-12 -1.08772e-12 0 0 1.5618e-26
2651 89 0.0015 -0.608121 -1.86636 0 -3.75218e-13 4.16255e-13 0 5.32605e-21 3.46567e-28
10305 344 0.0015 -0.501838 -1.8667 0 -5.85532e-12 7.1247e-12 0 1.68424e-20 2.47822e-26
10304 344 0.0015 -0.499014 -1.86761 0 5.23331e-12 -4.22755e-12 0 1.68424e-20 1.73352e-26
6089 203 0.0015 -0.438274 -1.86649 0 7.32484e-12 1.41477e-13 0 4.96948e-20 1.70143e-26
6088 203 0.0015 -0.436457 -1.86735 0 -8.2199e-12 1.36487e-12 0 4.96948e-20 2.00825e-26
8004 267 0.0015 -0.248369 -1.86612 0 8.0329e-12 -7.83055e-12 0 0 4.24609e-26
8003 267 0.0015 -0.246044 -1.867 0 -1.09975e-11 8.36464e-12 0 0 6.10747e-26
8002 267 0.0015 -0.243718 -1.86788 0 6.21232e-12 -3.30699e-12 0 0 2.57407e-26
8046 269 0.0015 0.152008 -1.86695 0 -9.24371e-14 3.37976e-13 0 0 3.20512e-27
6004 201 0.0015 0.499982 -1.86721 0 1.02455e-13 6.97598e-13 0 0 3.66515e-27
3527 118 0.0015 0.670962 -1.86752 0 -2.93257e-12 -3.48463e-12 0 0 9.89968e-27
10307 344 0.0015 -0.507486 -1.86489 0 -4.51024e-12 4.44851e-12 0 0 1.33222e-26
10306 344 0.0015 -0.504662 -1.8658 0 5.06828e-12 -6.85656e-12 0 1.68424e-20 1.99287e-26
6090 203 0.0015 -0.440091 -1.86563 0 -1.64662e-12 -7.61108e-13 0 2.48474e-20 7.5339e-28
8006 267 0.0015 -0.253021 -1.86436 0 -7.95174e-12 -4.40264e-12 0 0 1.28177e-26
8005 267 0.0015 -0.250695 -1.86524 0 1.12025e-12 5.57642e-12 0 0 9.67686e-27
10333 345 0.0015 -0.0686412 -1.86599 0 -2.73359e-12 9.53829e-12 0 1.57149e-20 4.47698e-26
10203 341 0.0015 0.288506 -1.8653 0 -2.72739e-13 2.15903e-12 0 3.6872e-21 1.36199e-26
4532 152 0.0015 0.364868 -1.86469 0 -5.18679e-13 3.41553e-12 0 0 1.47349e-26
10270 343 0.0015 0.424172 -1.86529 0 -3.22601e-14 -2.20246e-13 0 2.48474e-20 7.56798e-27
1483 50 0.0015 0.58358 -1.86557 0 -1.56402e-12 -4.31098e-12 0 1.36296e-20 1.08338e-26
3526 118 0.0015 0.673499 -1.86561 0 8.17077e-13 1.51365e-12 0 0 1.01052e-26
2652 89 0.0015 -0.611842 -1.86351 0 6.49302e-13 -9.02528e-14 0 5.32605e-21 3.48847e-28
10310 344 0.0015 -0.515959 -1.86217 0 -1.65518e-12 3.77831e-12 0 0 3.30108e-27
10309 344 0.0015 -0.513134 -1.86307 0 2.54729e-12 -1.85859e-12 0 0 3.78737e-27
10308 344 0.0015 -0.51031 -1.86398 0 9.39943e-13 -1.22932e-12 0 0 6.56673e-27
6036 202 0.0015 -0.337434 -1.86244 0 -1.62291e-12 2.65416e-12 0 0 1.2243e-26
8008 267 0.0015 -0.257673 -1.8626 0 7.74362e-12 -6.81876e-12 0 0 3.68897e-26
8007 267 0.0015 -0.255347 -1.86348 0 2.75763e-12 5.1637e-12 0 0 1.57941e-26
10334 345 0.0015 -0.0693181 -1.86288 0 1.53524e-12 -6.62525e-12 0 1.57149e-20 3.11588e-26
1958 66 0.0015 0.0122775 -1.86393 0 1.61205e-14 -1.82979e-13 0 5.20104e-21 2.47424e-26
1484 50 0.0015 0.585807 -1.86266 0 2.1106e-12 3.50455e-12 0 2.04443e-20 9.09577e-27
3525 118 0.0015 0.676036 -1.86369 0 -8.17077e-13 -1.51365e-12 0 0 1.01052e-26
2653 89 0.0015 -0.615563 -1.86065 0 1.80218e-12 -1.72125e-12 0 5.32605e-21 8.36438e-27
10312 344 0.0015 -0.521607 -1.86035 0 -4.63044e-12 4.283e-12 0 0 1.39157e-26
10311 344 0.0015 -0.518783 -1.86126 0 1.93742e-12 -4.87554e-12 0 0 5.33187e-27
8010 267 0.0015 -0.262324 -1.86085 0 3.49279e-12 -2.22129e-12 0 0 1.13448e-26
8009 267 0.0015 -0.259998 -1.86172 0 -9.22637e-12 5.91964e-12 0 0 4.20844e-26
8047 269 0.0015 0.151313 -1.86021 0 2.02187e-13 -1.37752e-12 0 0 2.37506e-27
10271 343 0.0015 0.424893 -1.86133 0 4.12185e-13 3.66542e-12 0 0 7.58972e-27
3524 118 0.0015 0.678573 -1.86178 0 2.93257e-12 3.48463e-12 0 0 9.89968e-27
10314 344 0.0015 -0.527255 -1.85854 0 -6.39195e-12 -9.88943e-13 0 0 1.68845e-26
10313 344 0.0015 -0.524431 -1.85944 0 7.46486e-12 -1.74838e-12 0 0 2.43835e-26
10335 345 0.0015 -0.0699949 -1.85978 0 -2.58168e-13 1.70726e-12 0 0 1.32033e-27
1959 66 0.0015 0.0117974 -1.85915 0 5.59363e-13 -5.26348e-12 0 0 1.89376e-26
4771 160 0.0015 0.0785585 -1.85825 0 -8.99183e-14 3.16954e-12 0 0 2.56969e-26
10204 341 0.0015 0.287705 -1.85857 0 -6.8391e-13 5.79572e-12 0 3.6872e-21 5.45585e-26
6005 201 0.0015 0.502997 -1.85945 0 -9.44642e-13 -2.76048e-12 0 0 1.02341e-26
1485 50 0.0015 0.588033 -1.85975 0 -5.95347e-12 -6.98709e-12 0 2.04443e-20 5.07045e-26
3523 118 0.0015 0.681111 -1.85986 0 2.39763e-12 1.08772e-12 0 0 1.5618e-26
2654 89 0.0015 -0.619284 -1.8578 0 -4.45678e-12 3.13217e-12 0 5.32605e-21 1.93879e-26
10316 344 0.0015 -0.532903 -1.85672 0 -8.74715e-13 8.48136e-13 0 1.68424e-20 4.98805e-28
10315 344 0.0015 -0.530079 -1.85763 0 2.4529e-12 1.10205e-12 0 0 2.08971e-27
8013 268 0.0015 -0.167482 -1.85688 0 -5.90158e-13 -1.67376e-12 0 5.70726e-21 1.26177e-26
10336 345 0.0015 -0.0706718 -1.85667 0 1.873e-12 -8.19535e-12 0 0 5.17899e-26
4533 152 0.0015 0.36352 -1.85607 0 4.01953e-13 -2.74019e-12 0 0 9.34531e-27
10272 343 0.0015 0.425614 -1.85738 0 4.81355e-13 2.54652e-13 0 0 8.128e-27
1486 50 0.0015 0.59026 -1.85684 0 5.95347e-12 6.98709e-12 0 2.04443e-20 5.07045e-26
3522 118 0.0015 0.683648 -1.85795 0 -5.63061e-12 -4.65531e-12 0 1.57149e-20 2.36994e-26
3521 118 0.0015 0.686185 -1.85603 0 8.24701e-12 6.95056e-12 0 3.14298e-20 5.86567e-26
2655 89 0.0015 -0.623004 -1.85494 0 4.71341e-12 -2.68212e-12 0 5.32605e-21 1.89296e-26
10318 344 0.0015 -0.538552 -1.85491 0 1.63115e-12 2.93428e-14 0 1.68424e-20 1.37591e-27
10317 344 0.0015 -0.535727 -1.85581 0 -3.3308e-14 -1.18069e-12 0 1.68424e-20 3.75333e-28
6037 202 0.0015 -0.342237 -1.85471 0 1.10386e-12 -1.86114e-12 0 0 6.89162e-27
1960 66 0.0015 0.0113172 -1.85437 0 8.87169e-15 -7.7699e-13 0 0 2.02584e-26
3520 118 0.0015 0.688722 -1.85412 0 -7.75771e-12 -6.46064e-12 0 3.14298e-20 5.50363e-26
2656 89 0.0015 -0.626725 -1.85209 0 -2.6946e-12 1.28335e-12 0 5.32605e-21 8.17325e-27
10320 344 0.0015 -0.5442 -1.85309 0 1.49969e-12 -4.51233e-13 0 0 2.02022e-27
10319 344 0.0015 -0.541376 -1.854 0 -2.733e-12 7.34442e-13 0 0 3.33006e-27
10337 345 0.0015 -0.0713486 -1.85356 0 -3.9552e-12 1.81532e-11 0 0 1.57353e-25
8048 269 0.0015 0.150617 -1.85348 0 -6.28294e-14 9.02413e-14 0 0 2.70191e-28
10273 343 0.0015 0.426335 -1.85342 0 -8.40604e-13 -3.071e-12 0 0 6.13921e-27
1487 50 0.0015 0.592486 -1.85392 0 -2.1106e-12 -3.50455e-12 0 2.04443e-20 9.09577e-27
3519 118 0.0015 0.69126 -1.8522 0 -3.4777e-12 -1.28229e-12 0 1.57149e-20 4.00744e-26
10338 345 0.0015 -0.0720254 -1.85046 0 2.29415e-12 -1.28501e-11 0 0 1.09942e-25
10205 341 0.0015 0.286904 -1.85184 0 1.21119e-12 -1.03513e-11 0 3.6872e-21 1.02289e-25
6006 201 0.0015 0.506013 -1.85168 0 4.77436e-13 1.31816e-12 0 5.99535e-21 7.37798e-27
1488 50 0.0015 0.594712 -1.85101 0 1.56402e-12 4.31098e-12 0 1.36296e-20 1.08338e-26
3518 118 0.0015 0.693797 -1.85028 0 7.15315e-12 3.0029e-12 0 0 3.54355e-26
2657 89 0.0015 -0.630446 -1.84923 0 -2.63137e-12 2.12851e-12 0 0 1.94779e-26
1961 66 0.0015 0.0108371 -1.84959 0 -7.01689e-13 7.68246e-12 0 0 4.11645e-26
4772 160 0.0015 0.0782973 -1.84905 0 1.41751e-13 -5.0168e-12 0 2.71488e-21 3.44253e-26
10274 343 0.0015 0.427056 -1.84946 0 7.44345e-13 3.77895e-12 0 0 9.79318e-27
1489 50 0.0015 0.596939 -1.8481 0 -1.34597e-12 -4.38344e-12 0 6.81478e-21 1.06176e-26
3517 118 0.0015 0.696334 -1.84837 0 1.07914e-12 3.03054e-12 0 0 1.57524e-26
2658 89 0.0015 -0.634167 -1.84638 0 6.01906e-12 -4.30434e-12 0 5.32605e-21 3.56808e-26
6038 202 0.0015 -0.34704 -1.84697 0 -9.11309e-13 1.56203e-12 0 0 4.47633e-27
10339 345 0.0015 -0.0727023 -1.84735 0 1.1527e-12 -1.71404e-12 0 0 1.79752e-26
8049 269 0.0015 0.149922 -1.84674 0 4.88575e-14 -1.42415e-13 0 3.6872e-21 3.34189e-28
6541 219 0.0015 0.213251 -1.84656 0 5.86973e-14 -7.66218e-13 0 3.51396e-21 1.1661e-27
4534 152 0.0015 0.362172 -1.84745 0 -2.97497e-13 2.02017e-12 0 0 5.37715e-27
3516 118 0.0015 0.698871 -1.84645 0 -5.70836e-12 -5.07315e-12 0 0 2.56618e-26
8014 268 0.0015 -0.163039 -1.84452 0 -3.30998e-13 -9.0205e-13 0 7.60969e-21 2.83381e-27
10340 345 0.0015 -0.0733791 -1.84424 0 -4.0802e-14 -1.14091e-12 0 0 3.71919e-26
1962 66 0.0015 0.010357 -1.84481 0 8.83217e-13 -9.17423e-12 0 0 5.66644e-26
10206 341 0.0015 0.286103 -1.84511 0 -1.01031e-12 8.7553e-12 0 3.6872e-21 7.46857e-26
10275 343 0.0015 0.427777 -1.84551 0 -1.57422e-12 -8.33827e-12 0 0 4.52085e-26
1490 50 0.0015 0.599165 -1.84519 0 -1.2488e-12 8.96776e-14 0 0 6.29478e-27
3515 118 0.0015 0.701409 -1.84454 0 2.95371e-12 1.28901e-12 0 0 1.16495e-26
2659 89 0.0015 -0.637888 -1.84352 0 -4.5158e-12 3.03151e-12 0 1.06521e-20 2.10402e-26
6007 201 0.0015 0.509028 -1.84391 0 6.894e-13 1.79701e-12 0 5.99535e-21 6.02775e-27
1491 50 0.0015 0.601391 -1.84228 0 2.2894e-13 -1.31992e-13 0 0 8.56509e-27
3514 118 0.0015 0.703946 -1.84262 0 6.50435e-13 2.69878e-12 0 0 2.67809e-27
2660 89 0.0015 -0.641609 -1.84066 0 3.53238e-12 -2.54007e-12 0 1.59781e-20 1.25571e-26
10341 345 0.0015 -0.074056 -1.84114 0 -3.57964e-12 1.40055e-11 0 0 1.00051e-25
1963 66 0.0015 0.00987681 -1.84004 0 -8.19421e-13 8.15137e-12 0 5.20104e-21 4.54962e-26
10276 343 0.0015 0.428498 -1.84155 0 1.57422e-12 8.33827e-12 0 0 4.52085e-26
3513 118 0.0015 0.706483 -1.84071 0 -3.47358e-12 -5.51859e-12 0 0 1.97369e-26
6039 202 0.0015 -0.351842 -1.83924 0 1.19745e-12 -1.98834e-12 0 2.74394e-21 6.81066e-27
10342 345 0.0015 -0.0747328 -1.83803 0 3.54162e-12 -1.23471e-11 0 0 8.77005e-26
4773 160 0.0015 0.0780361 -1.83985 0 -6.22637e-14 2.21362e-12 0 2.71488e-21 9.07177e-27
8050 269 0.0015 0.149226 -1.84 0 4.86064e-14 -5.28646e-13 0 7.37441e-21 1.74751e-27
6542 219 0.0015 0.21269 -1.83947 0 1.66792e-13 -2.06266e-12 0 3.51396e-21 1.70689e-26
10207 341 0.0015 0.285302 -1.83839 0 6.28646e-13 -5.33884e-12 0 3.6872e-21 3.14784e-26
4535 152 0.0015 0.360823 -1.83883 0 -4.65998e-14 2.76748e-13 0 5.72705e-21 4.03855e-27
1492 50 0.0015 0.603618 -1.83936 0 3.35098e-12 3.63328e-12 0 6.81478e-21 1.27035e-26
3512 118 0.0015 0.70902 -1.83879 0 6.02383e-12 6.92354e-12 0 0 3.56091e-26
2661 89 0.0015 -0.64533 -1.83781 0 -3.68244e-12 3.25574e-12 0 1.59781e-20 1.56641e-26
10277 343 0.0015 0.429219 -1.8376 0 -7.44345e-13 -3.77895e-12 0 0 9.79318e-27
6008 201 0.0015 0.512043 -1.83614 0 -1.04481e-12 -2.66612e-12 0 5.99535e-21 9.58587e-27
1493 50 0.0015 0.605844 -1.83645 0 -5.39514e-13 1.10747e-12 0 6.81478e-21 2.0542e-26
3511 118 0.0015 0.711558 -1.83688 0 -3.24457e-12 -3.26923e-12 0 0 1.8357e-26
2662 89 0.0015 -0.649051 -1.83495 0 3.15012e-12 -3.07513e-12 0 1.06521e-20 1.25983e-26
10343 345 0.0015 -0.0754097 -1.83493 0 -1.35943e-12 3.71549e-12 0 1.57149e-20 1.08654e-26
1964 66 0.0015 0.00939668 -1.83526 0 6.18193e-13 -5.68833e-12 0 5.20104e-21 2.31984e-26
2663 89 0.0015 -0.652772 -1.8321 0 -2.09215e-12 1.87352e-12 0 5.32605e-21 5.87988e-27
10171 340 0.0015 -0.234195 -1.83312 0 -3.29696e-14 8.23264e-14 0 0 1.61632e-29
8015 268 0.0015 -0.158597 -1.83216 0 7.18707e-13 1.99384e-12 0 7.60969e-21 8.43414e-27
8051 269 0.0015 0.14853 -1.83326 0 1.32296e-13 -1.45054e-12 0 7.37441e-21 1.18884e-26
6543 219 0.0015 0.212128 -1.83239 0 -3.61386e-13 4.57862e-12 0 3.51396e-21 2.19848e-26
10278 343 0.0015 0.429939 -1.83364 0 8.40604e-13 3.071e-12 0 0 6.13921e-27
1494 50 0.0015 0.60807 -1.83354 0 -8.9467e-13 -3.10237e-12 0 6.81478e-21 1.22398e-26
6040 202 0.0015 -0.356645 -1.83151 0 -1.77549e-12 2.88625e-12 0 2.74394e-21 1.59838e-26
10344 345 0.0015 -0.0760865 -1.83182 0 4.16735e-13 -2.17608e-12 0 1.57149e-20 2.95363e-27
1965 66 0.0015 0.00891654 -1.83048 0 -3.03746e-13 2.19204e-12 0 5.20104e-21 6.15387e-27
4774 160 0.0015 0.0777749 -1.83066 0 9.08273e-15 -2.62347e-13 0 2.71488e-21 3.70979e-28
10208 341 0.0015 0.284501 -1.83166 0 -4.42692e-14 1.04624e-13 0 0 9.24228e-27
4536 152 0.0015 0.359475 -1.83021 0 3.65234e-13 -2.40972e-12 0 1.14541e-20 7.34755e-27
1495 50 0.0015 0.610297 -1.83063 0 -2.33292e-12 -1.92463e-12 0 0 6.62439e-27
2664 89 0.0015 -0.656493 -1.82924 0 1.29501e-12 -9.99643e-13 0 0 1.74712e-27
10345 345 0.0015 -0.0767633 -1.82871 0 4.11544e-13 1.12053e-12 0 1.57149e-20 3.30363e-27
10279 343 0.0015 0.43066 -1.82968 0 -4.81355e-13 -2.54652e-13 0 0 8.128e-27
6009 201 0.0015 0.515058 -1.82837 0 1.13615e-12 2.94077e-12 0 0 1.18878e-26
2665 89 0.0015 -0.660213 -1.82639 0 -2.03963e-12 1.78887e-12 0 0 5.6313e-27
10172 340 0.0015 -0.238704 -1.82673 0 -8.87885e-13 1.16407e-12 0 0 5.22882e-27
8052 269 0.0015 0.147835 -1.82652 0 -5.84286e-13 5.93103e-12 0 3.6872e-21 3.49158e-26
1496 50 0.0015 0.612523 -1.82772 0 2.68729e-12 2.65897e-12 0 0 7.97651e-27
10346 345 0.0015 -0.0774402 -1.82561 0 -1.35006e-12 1.87778e-12 0 0 2.14023e-27
1966 66 0.0015 0.0084364 -1.8257 0 1.75615e-13 -9.72431e-13 0 0 1.13583e-27
6544 219 0.0015 0.211567 -1.8253 0 2.95378e-14 -4.10965e-13 0 3.51396e-21 9.64359e-27
10209 341 0.0015 0.2837 -1.82493 0 -4.29828e-13 4.0942e-12 0 0 1.70679e-26
10280 343 0.0015 0.431381 -1.82573 0 -4.12185e-13 -3.66542e-12 0 0 7.58972e-27
1497 50 0.0015 0.614749 -1.8248 0 -1.87848e-12 -1.56154e-12 0 6.81478e-21 2.89054e-27
2666 89 0.0015 -0.663934 -1.82353 0 3.1396e-12 -2.84418e-12 0 0 1.1701e-26
6041 202 0.0015 -0.361448 -1.82377 0 1.23211e-12 -1.99427e-12 0 2.74394e-21 1.26357e-26
10347 345 0.0015 -0.078117 -1.8225 0 5.33211e-13 9.9523e-13 0 0 5.94467e-27
2667 89 0.0015 -0.667655 -1.82068 0 -3.33493e-12 3.15063e-12 0 5.32605e-21 1.3568e-26
10173 340 0.0015 -0.243212 -1.82034 0 1.43745e-12 -1.89327e-12 0 6.39056e-21 6.69565e-27
1967 66 0.0015 0.00795626 -1.82092 0 -4.31964e-13 3.9801e-12 0 0 1.38104e-26
4775 160 0.0015 0.0775136 -1.82146 0 5.79877e-14 -2.14702e-12 0 0 1.07038e-26
4537 152 0.0015 0.358127 -1.82159 0 -3.897e-13 2.70261e-12 0 1.14541e-20 9.03666e-27
10281 343 0.0015 0.432102 -1.82177 0 3.22601e-14 2.20246e-13 0 2.48474e-20 7.56798e-27
6010 201 0.0015 0.518074 -1.8206 0 -6.77333e-13 -1.82581e-12 0 0 8.0632e-27
1498 50 0.0015 0.616976 -1.82189 0 8.47425e-13 1.13036e-12 0 1.36296e-20 1.41818e-27
8016 268 0.0015 -0.154154 -1.81981 0 -5.12882e-13 -1.43847e-12 0 1.90242e-21 5.92243e-27
10348 345 0.0015 -0.0787939 -1.81939 0 5.73749e-13 -3.74886e-12 0 0 6.50748e-27
8053 269 0.0015 0.147139 -1.81978 0 3.37881e-13 -3.33425e-12 0 3.6872e-21 2.46542e-26
6545 219 0.0015 0.211005 -1.81821 0 1.34478e-13 -1.73365e-12 0 7.02791e-21 3.87101e-27
10210 341 0.0015 0.282899 -1.8182 0 5.28395e-13 -4.73878e-12 0 0 2.15748e-26
1499 50 0.0015 0.619202 -1.81898 0 -6.77726e-13 -1.6823e-12 0 1.36296e-20 2.31874e-27
2668 89 0.0015 -0.671376 -1.81782 0 3.58276e-12 -3.72029e-12 0 5.32605e-21 1.72024e-26
6042 202 0.0015 -0.366251 -1.81604 0 1.27031e-13 -2.24336e-13 0 0 3.76277e-28
10349 345 0.0015 -0.0794707 -1.81629 0 -1.24059e-12 5.26996e-12 0 0 1.52129e-26
1968 66 0.0015 0.00747613 -1.81614 0 2.58725e-13 -2.80373e-12 0 0 1.27755e-26
10282 343 0.0015 0.432823 -1.81781 0 3.64158e-13 3.33538e-12 0 2.48474e-20 6.2616e-27
1500 50 0.0015 0.621428 -1.81607 0 7.09477e-13 1.32832e-12 0 6.81478e-21 2.24888e-27
2669 89 0.0015 -0.675097 -1.81497 0 -8.11711e-13 1.60321e-12 0 5.32605e-21 1.24309e-26
5941 199 0.0015 0.740778 -1.81551 0 -8.82949e-13 -3.60655e-12 0 0 3.67868e-26
2670 89 0.0015 -0.678818 -1.81211 0 -1.14488e-12 5.0957e-13 0 0 1.93435e-27
10174 340 0.0015 -0.24772 -1.81396 0 -1.42329e-13 2.12709e-14 0 6.39056e-21 2.63052e-27
10350 345 0.0015 -0.0801475 -1.81318 0 8.85054e-13 -3.73857e-12 0 0 1.30307e-26
4776 160 0.0015 0.0772524 -1.81226 0 -8.78271e-14 3.14821e-12 0 0 1.38005e-26
8054 269 0.0015 0.146443 -1.81304 0 9.53689e-14 -1.37151e-12 0 7.37441e-21 2.46638e-27
4538 152 0.0015 0.356779 -1.81297 0 1.4608e-13 -1.17435e-12 0 5.72705e-21 4.37824e-27
10283 343 0.0015 0.433544 -1.81386 0 -5.79459e-14 -3.28855e-12 0 3.72711e-20 5.88376e-27
6011 201 0.0015 0.521089 -1.81283 0 -1.19449e-12 -3.0343e-12 0 0 2.58929e-26
1969 66 0.0015 0.00699599 -1.81136 0 2.61981e-13 -2.1629e-12 0 0 4.96699e-27
6546 219 0.0015 0.210443 -1.81113 0 -2.91699e-14 4.14623e-13 0 1.05419e-20 3.10226e-28
10211 341 0.0015 0.282098 -1.81148 0 -2.56661e-13 1.9949e-12 0 3.6872e-21 8.84992e-27
6043 202 0.0015 -0.371054 -1.8083 0 6.28801e-13 -9.76204e-13 0 0 6.26646e-27
10284 343 0.0015 0.434265 -1.8099 0 -2.47664e-13 1.47369e-12 0 1.24237e-20 3.00347e-27
10175 340 0.0015 -0.252228 -1.80757 0 -2.23446e-12 3.25104e-12 0 1.27811e-20 2.36307e-26
8017 268 0.0015 -0.149712 -1.80745 0 -2.76148e-13 -7.52338e-13 0 0 4.60357e-27
1970 66 0.0015 0.00651585 -1.80658 0 9.91598e-14 -1.35844e-12 0 0 1.91586e-26
8055 269 0.0015 0.145748 -1.8063 0 -1.38172e-13 2.20807e-12 0 1.10616e-20 4.59849e-27
5942 199 0.0015 0.743061 -1.80618 0 1.4231e-12 5.82767e-12 0 0 5.07289e-26
6547 219 0.0015 0.209882 -1.80404 0 9.21456e-14 -1.12884e-12 0 1.05419e-20 2.44616e-27
10212 341 0.0015 0.281297 -1.80475 0 1.94095e-13 -1.13634e-12 0 3.6872e-21 3.24008e-27
4539 152 0.0015 0.35543 -1.80435 0 1.28533e-13 -7.59552e-13 0 5.72705e-21 9.80834e-28
10285 343 0.0015 0.434986 -1.80595 0 2.2219e-13 5.44763e-13 0 2.48474e-20 1.95581e-28