ITEM: TIMESTEP
51600
ITEM: NUMBER OF ATOMS
10500
ITEM: BOX BOUNDS pp pp pp
-1.0249999999999999e+00 1.0249999999999999e+00
-2.0000000000000000e+00 2.0000000000000000e+00
-5.0000000000000003e-02 5.0000000000000003e-02
ITEM: ATOMS id type radius x y z fx fy fz c_bendingE c_stretchingE
10321 345 0.0015 -0.0605191 -1.90326 0 -5.2972e-13 2.67068e-12 0 0 6.54426e-27
6031 202 0.0015 -0.31342 -1.90111 0 -2.03509e-13 3.2057e-13 0 0 3.64569e-28
10322 345 0.0015 -0.061196 -1.90016 0 6.70903e-13 -4.11209e-12 0 0 8.37139e-27
8041 269 0.0015 0.155487 -1.90065 0 1.19574e-13 -1.23709e-12 0 0 2.90675e-27
10261 343 0.0015 0.417684 -1.90089 0 6.1595e-14 7.3463e-13 0 0 6.01444e-28
1471 50 0.0015 0.556864 -1.90052 0 2.50833e-12 3.32577e-12 0 0 1.76677e-26
10323 345 0.0015 -0.0618728 -1.89705 0 3.2837e-13 -1.51208e-13 0 0 4.24912e-27
1951 66 0.0015 0.0156385 -1.89738 0 3.68541e-13 -3.64752e-12 0 0 1.7931e-26
10262 343 0.0015 0.418405 -1.89694 0 3.46742e-13 1.2478e-12 0 1.24237e-20 5.17528e-27
1472 50 0.0015 0.559091 -1.8976 0 -1.82647e-12 -2.798e-12 0 0 1.83749e-26
2641 89 0.0015 -0.570912 -1.89491 0 -4.18093e-13 2.52389e-13 0 0 3.06881e-28
1473 50 0.0015 0.561317 -1.89469 0 -4.28525e-12 -4.90367e-12 0 0 3.33827e-26
2642 89 0.0015 -0.574633 -1.89206 0 1.87249e-12 -1.19877e-12 0 0 4.20595e-27
6032 202 0.0015 -0.318223 -1.89337 0 -1.34106e-13 2.51631e-13 0 0 1.4802e-27
10324 345 0.0015 -0.0625496 -1.89394 0 -8.04461e-13 3.7809e-12 0 0 6.73284e-27
1952 66 0.0015 0.0151583 -1.8926 0 -1.95764e-13 2.00394e-12 0 0 2.15748e-26
8042 269 0.0015 0.154791 -1.89391 0 -3.95748e-14 6.60021e-13 0 0 3.5447e-27
10263 343 0.0015 0.419126 -1.89298 0 3.65252e-13 1.67533e-12 0 1.24237e-20 2.01752e-26
3540 118 0.0015 0.637977 -1.89243 0 5.94571e-12 4.48198e-12 0 0 4.89587e-26
6061 203 0.0015 -0.387409 -1.89062 0 4.41394e-12 -3.41452e-12 0 2.48474e-20 1.65985e-26
10325 345 0.0015 -0.0632265 -1.89084 0 -6.49349e-13 6.756e-13 0 1.57149e-20 1.23001e-26
10231 342 0.0015 0.215 -1.89 0 1.18929e-12 0 0 0 2.70859e-28
10232 342 0.0015 0.21569 -1.89 0 -1.99216e-12 0 0 0 3.94413e-28
10233 342 0.0015 0.216379 -1.89 0 2.16883e-13 0 0 0 1.89285e-28
10234 342 0.0015 0.217069 -1.89 0 1.73883e-12 0 0 0 3.2034e-28
10235 342 0.0015 0.217759 -1.89 0 -2.28237e-12 0 0 0 4.98826e-28
10236 342 0.0015 0.218448 -1.89 0 2.28259e-12 0 0 0 4.98826e-28
10237 342 0.0015 0.219138 -1.89 0 -3.40544e-12 0 0 0 1.2261e-27
10238 342 0.0015 0.219828 -1.89 0 3.73143e-12 0 0 0 1.39045e-27
10239 342 0.0015 0.220517 -1.89 0 -1.19552e-12 0 0 0 4.34359e-28
10240 342 0.0015 0.221207 -1.89 0 7.97307e-13 0 0 0 2.39018e-28
10241 342 0.0015 0.221897 -1.89 0 -2.64414e-12 0 0 0 6.92055e-28
10242 342 0.0015 0.222586 -1.89 0 1.08441e-13 0 0 0 8.74036e-28
10243 342 0.0015 0.223276 -1.89 0 3.73077e-12 0 0 0 1.39771e-27
10244 342 0.0015 0.223966 -1.89 0 -2.89791e-12 0 0 0 1.06622e-27
10245 342 0.0015 0.224655 -1.89 0 -1.15952e-12 0 0 0 6.81805e-28
10246 342 0.0015 0.225345 -1.89 0 1.15952e-12 0 0 0 6.81805e-28
10247 342 0.0015 0.226034 -1.89 0 2.89791e-12 0 0 0 1.06622e-27
10248 342 0.0015 0.226724 -1.89 0 -3.73077e-12 0 0 0 1.39771e-27
10249 342 0.0015 0.227414 -1.89 0 -1.08441e-13 0 0 0 8.74036e-28
10250 342 0.0015 0.228103 -1.89 0 2.64414e-12 0 0 0 6.92055e-28
10251 342 0.0015 0.228793 -1.89 0 -7.97307e-13 0 0 0 2.39018e-28
10252 342 0.0015 0.229483 -1.89 0 1.19552e-12 0 0 0 4.34359e-28
10253 342 0.0015 0.230172 -1.89 0 -3.73143e-12 0 0 0 1.39045e-27
10254 342 0.0015 0.230862 -1.89 0 3.40544e-12 0 0 0 1.2261e-27
10255 342 0.0015 0.231552 -1.89 0 -2.28259e-12 0 0 0 4.98826e-28
10256 342 0.0015 0.232241 -1.89 0 2.28237e-12 0 0 0 4.98826e-28
10257 342 0.0015 0.232931 -1.89 0 -1.73883e-12 0 0 0 3.2034e-28
10258 342 0.0015 0.233621 -1.89 0 -2.16883e-13 0 0 0 1.89285e-28
10259 342 0.0015 0.23431 -1.89 0 1.99216e-12 0 0 0 3.94413e-28
10260 342 0.0015 0.235 -1.89 0 -1.18929e-12 0 0 0 2.70859e-28
6001 201 0.0015 0.490936 -1.89052 0 -3.83485e-13 -9.62131e-13 0 0 2.48297e-27
1474 50 0.0015 0.563543 -1.89178 0 3.55351e-12 4.64268e-12 0 6.81478e-21 3.2709e-26
3539 118 0.0015 0.640514 -1.89051 0 -7.385e-12 -5.61631e-12 0 0 5.19231e-26
2643 89 0.0015 -0.578354 -1.8892 0 -4.41633e-12 2.96536e-12 0 0 2.05866e-26
6063 203 0.0015 -0.391043 -1.8889 0 -9.78398e-12 -1.38219e-12 0 2.48474e-20 2.73836e-26
6064 203 0.0015 -0.392859 -1.88804 0 1.20073e-11 -1.68222e-13 0 0 3.5505e-26
6062 203 0.0015 -0.389226 -1.88976 0 -2.05322e-12 5.16375e-12 0 2.48474e-20 1.76669e-26
10264 343 0.0015 0.419847 -1.88903 0 -1.99316e-12 -9.45766e-12 0 1.24237e-20 5.48099e-26
1475 50 0.0015 0.56577 -1.88887 0 -1.10672e-12 -2.65767e-12 0 6.81478e-21 6.92657e-27
3538 118 0.0015 0.643052 -1.8886 0 8.57748e-13 1.03701e-12 0 0 3.20565e-27
2644 89 0.0015 -0.582074 -1.88635 0 4.82283e-12 -3.04394e-12 0 0 2.24346e-26
6066 203 0.0015 -0.396492 -1.88631 0 -2.59232e-13 -2.44989e-12 0 0 2.18161e-28
6065 203 0.0015 -0.394676 -1.88717 0 -5.20688e-12 -1.63231e-13 0 0 9.37637e-27
7981 267 0.0015 -0.194876 -1.88635 0 -4.34456e-12 8.29537e-13 0 1.00459e-20 1.31128e-26
10326 345 0.0015 -0.0639033 -1.88773 0 1.76047e-12 -5.32207e-12 0 1.57149e-20 1.38087e-26
1953 66 0.0015 0.0146782 -1.88782 0 -2.30797e-13 2.06637e-12 0 0 3.88644e-27
8043 269 0.0015 0.154095 -1.88717 0 1.12144e-13 -1.40119e-12 0 3.6872e-21 8.07182e-27
3537 118 0.0015 0.645589 -1.88668 0 2.65433e-12 8.4973e-13 0 0 4.16417e-27
6068 203 0.0015 -0.400126 -1.88459 0 -8.74468e-12 -5.64488e-12 0 2.48474e-20 1.21051e-26
6067 203 0.0015 -0.398309 -1.88545 0 3.77086e-12 6.36478e-12 0 0 5.00916e-28
6033 202 0.0015 -0.323025 -1.88564 0 4.86854e-13 -8.52986e-13 0 0 1.37018e-27
7983 267 0.0015 -0.199527 -1.8846 0 4.36229e-13 1.29999e-12 0 2.00918e-20 1.17166e-28
7982 267 0.0015 -0.197202 -1.88548 0 4.29381e-12 -2.17058e-13 0 2.00918e-20 1.3161e-26
10327 345 0.0015 -0.0645802 -1.88463 0 3.33019e-13 -1.437e-12 0 1.57149e-20 2.02475e-26
10265 343 0.0015 0.420568 -1.88507 0 1.53062e-12 6.7136e-12 0 0 4.02266e-26
1476 50 0.0015 0.567996 -1.88596 0 3.29742e-12 6.20351e-12 0 6.81478e-21 2.59753e-26
3536 118 0.0015 0.648126 -1.88476 0 -6.69724e-12 -3.72285e-12 0 0 3.04481e-26
2645 89 0.0015 -0.585795 -1.88349 0 1.06743e-13 -1.07206e-12 0 5.32605e-21 1.62375e-26
6071 203 0.0015 -0.405575 -1.882 0 1.60242e-11 -9.42457e-12 0 0 1.01351e-25
6070 203 0.0015 -0.403759 -1.88287 0 -1.80277e-11 7.04494e-12 0 2.48474e-20 1.07895e-25
6069 203 0.0015 -0.401942 -1.88373 0 1.36177e-11 -1.66643e-13 0 2.48474e-20 4.57055e-26
7985 267 0.0015 -0.204179 -1.88284 0 -5.22437e-12 8.79237e-12 0 0 2.20859e-26
7984 267 0.0015 -0.201853 -1.88372 0 2.16354e-12 -6.51738e-12 0 1.00459e-20 1.11934e-26
1954 66 0.0015 0.0141981 -1.88304 0 1.9506e-13 -1.7217e-12 0 0 2.5186e-27
6002 201 0.0015 0.493952 -1.88275 0 1.53087e-12 3.90598e-12 0 0 2.55906e-26
1477 50 0.0015 0.570222 -1.88304 0 -9.5763e-13 -2.91939e-12 0 0 2.11593e-26
3535 118 0.0015 0.650663 -1.88285 0 5.27483e-12 3.98847e-12 0 0 2.76578e-26
2646 89 0.0015 -0.589516 -1.88064 0 -2.20435e-12 2.77059e-12 0 5.32605e-21 1.09561e-26
6073 203 0.0015 -0.409209 -1.88028 0 3.54526e-12 3.87857e-12 0 0 1.11699e-27
6072 203 0.0015 -0.407392 -1.88114 0 -7.24024e-12 4.40184e-12 0 0 2.86326e-26
7988 267 0.0015 -0.211156 -1.8802 0 -2.53459e-13 -1.99696e-12 0 0 4.47409e-28
7987 267 0.0015 -0.208831 -1.88108 0 4.49476e-13 5.05687e-12 0 0 1.94122e-27
7986 267 0.0015 -0.206505 -1.88196 0 3.26525e-12 -7.29843e-12 0 0 1.2847e-26
8011 268 0.0015 -0.176367 -1.88159 0 -1.58795e-13 -4.31515e-13 0 1.90242e-21 7.71091e-28
10328 345 0.0015 -0.065257 -1.88152 0 -2.55885e-12 8.24519e-12 0 0 3.27822e-26
8044 269 0.0015 0.1534 -1.88043 0 -4.57616e-13 4.42617e-12 0 3.6872e-21 1.88431e-26
10266 343 0.0015 0.421289 -1.88111 0 -1.63675e-13 3.59664e-14 0 0 2.04907e-27
1478 50 0.0015 0.572449 -1.88013 0 -2.06704e-12 -2.09909e-12 0 0 4.35204e-27
3534 118 0.0015 0.653201 -1.88093 0 2.37547e-12 2.04166e-13 0 1.57149e-20 9.90245e-27
10292 344 0.0015 -0.465124 -1.8785 0 -1.65326e-12 -9.58439e-13 0 1.68424e-20 1.1732e-27
10291 344 0.0015 -0.4623 -1.87941 0 1.21542e-12 -1.06607e-13 0 1.68424e-20 1.16636e-27
6074 203 0.0015 -0.411025 -1.87942 0 -5.01473e-12 -9.20007e-12 0 0 1.25258e-28
6075 203 0.0015 -0.412842 -1.87856 0 1.38415e-12 8.91813e-12 0 0 5.23208e-27
7990 267 0.0015 -0.215808 -1.87844 0 6.63248e-13 3.59424e-12 0 0 1.37051e-27
7989 267 0.0015 -0.213482 -1.87932 0 -2.17725e-12 -1.88706e-12 0 0 6.5369e-28
10329 345 0.0015 -0.0659339 -1.87841 0 1.72753e-12 -5.00202e-12 0 0 1.87821e-26
1955 66 0.0015 0.0137179 -1.87827 0 -4.00263e-13 3.78659e-12 0 0 1.06245e-26
10201 341 0.0015 0.290108 -1.87875 0 -1.78593e-13 1.19192e-12 0 0 2.73109e-27
3533 118 0.0015 0.655738 -1.87902 0 -3.14875e-12 -4.51627e-13 0 3.14298e-20 8.88837e-27
2647 89 0.0015 -0.593237 -1.87778 0 -9.74369e-13 1.34932e-13 0 1.06521e-20 3.21623e-27
10294 344 0.0015 -0.470773 -1.87669 0 -5.26325e-12 -1.28777e-12 0 0 1.03221e-26
10293 344 0.0015 -0.467948 -1.87759 0 2.28813e-12 2.43742e-12 0 1.68424e-20 1.4902e-27
6077 203 0.0015 -0.416475 -1.87683 0 3.47368e-12 -1.06891e-12 0 2.48474e-20 2.80404e-26
6076 203 0.0015 -0.414658 -1.87769 0 4.32467e-12 -4.66043e-12 0 2.48474e-20 9.7429e-27
6034 202 0.0015 -0.327828 -1.87791 0 -1.16036e-12 1.93526e-12 0 0 9.76153e-27
7992 267 0.0015 -0.22046 -1.87668 0 -4.3969e-13 -2.01319e-12 0 0 6.54094e-29
7991 267 0.0015 -0.218134 -1.87756 0 5.87459e-13 -1.15836e-12 0 0 1.17398e-27
10267 343 0.0015 0.42201 -1.87716 0 -6.0545e-13 -2.70916e-12 0 1.24237e-20 4.70299e-27
1479 50 0.0015 0.574675 -1.87722 0 1.19685e-12 2.39941e-12 0 0 3.59434e-27
3532 118 0.0015 0.658275 -1.8771 0 4.9121e-14 -8.97176e-13 0 3.14298e-20 1.34581e-28
2648 89 0.0015 -0.596958 -1.87493 0 2.33723e-12 -1.79825e-12 0 1.06521e-20 5.66613e-27
10296 344 0.0015 -0.476421 -1.87487 0 -3.58006e-12 5.1692e-12 0 0 1.12806e-26
10295 344 0.0015 -0.473597 -1.87578 0 6.16838e-12 -2.24056e-12 0 0 1.77187e-26
6080 203 0.0015 -0.421925 -1.87425 0 -5.39534e-12 -1.11184e-11 0 0 3.7535e-28
6079 203 0.0015 -0.420108 -1.87511 0 8.663e-12 6.96526e-12 0 0 1.01206e-26
6078 203 0.0015 -0.418291 -1.87597 0 -1.17836e-11 8.91349e-14 0 2.48474e-20 3.33119e-26
7995 267 0.0015 -0.227437 -1.87404 0 3.90299e-12 6.16152e-12 0 2.00918e-20 2.81406e-27
7994 267 0.0015 -0.225111 -1.87492 0 -7.6223e-12 -4.34584e-12 0 1.00459e-20 1.17688e-26
7993 267 0.0015 -0.222785 -1.8758 0 5.05779e-12 3.08284e-12 0 0 9.11901e-27
10330 345 0.0015 -0.0666107 -1.87531 0 2.40238e-13 -4.49904e-13 0 0 1.67227e-27
6003 201 0.0015 0.496967 -1.87498 0 -1.35457e-12 -3.50635e-12 0 0 2.39392e-26
1480 50 0.0015 0.576901 -1.87431 0 8.405e-14 -1.92815e-12 0 0 1.43868e-27
3531 118 0.0015 0.660812 -1.87519 0 1.01494e-12 -4.41683e-14 0 3.14298e-20 3.87226e-28
2649 89 0.0015 -0.600679 -1.87207 0 -2.42426e-12 2.29673e-12 0 1.06521e-20 7.25716e-27
10299 344 0.0015 -0.484893 -1.87215 0 -6.82371e-12 1.70677e-12 0 5.05273e-20 2.03615e-26
10298 344 0.0015 -0.482069 -1.87306 0 5.29839e-12 1.91391e-12 0 3.36849e-20 1.01117e-26
10297 344 0.0015 -0.479245 -1.87396 0 -1.00577e-12 -4.95107e-12 0 1.68424e-20 3.4901e-27
6082 203 0.0015 -0.425558 -1.87252 0 -6.71715e-12 -4.78369e-12 0 0 5.32887e-27
6081 203 0.0015 -0.423741 -1.87338 0 5.64471e-12 1.04285e-11 0 0 8.94484e-28
7997 267 0.0015 -0.232089 -1.87228 0 3.87064e-12 4.66553e-12 0 1.00459e-20 1.34742e-27
7996 267 0.0015 -0.229763 -1.87316 0 -2.53191e-12 -5.49284e-12 0 2.00918e-20 7.39751e-28
10331 345 0.0015 -0.0672875 -1.8722 0 1.11351e-13 -3.41466e-12 0 0 1.95025e-26
1956 66 0.0015 0.0132378 -1.87349 0 6.40142e-13 -5.98455e-12 0 0 2.48513e-26
8045 269 0.0015 0.152704 -1.87369 0 2.46721e-13 -1.96184e-12 0 3.6872e-21 1.18527e-26
10202 341 0.0015 0.289307 -1.87202 0 3.24903e-13 -1.96368e-12 0 3.6872e-21 3.88675e-27
4531 152 0.0015 0.366216 -1.8733 0 -1.21659e-13 6.93058e-13 0 5.72705e-21 1.19938e-27
10268 343 0.0015 0.422731 -1.8732 0 1.30607e-12 5.54359e-12 0 1.24237e-20 2.04437e-26
3530 118 0.0015 0.66335 -1.87327 0 -3.37598e-12 -5.21269e-13 0 1.57149e-20 5.29034e-27
10301 344 0.0015 -0.490541 -1.87033 0 -2.68155e-12 1.70221e-12 0 1.68424e-20 3.89384e-27
10300 344 0.0015 -0.487717 -1.87124 0 4.5174e-12 -2.99596e-12 0 3.36849e-20 1.32123e-26
6084 203 0.0015 -0.429191 -1.8708 0 -6.11575e-12 8.00735e-13 0 4.96948e-20 1.14572e-26
6083 203 0.0015 -0.427374 -1.87166 0 4.61112e-12 -8.18737e-13 0 2.48474e-20 6.10979e-27
6035 202 0.0015 -0.332631 -1.87017 0 1.64404e-12 -2.68444e-12 0 0 1.32025e-26
7999 267 0.0015 -0.23674 -1.87052 0 4.98992e-12 2.97079e-12 0 0 6.86965e-27
7998 267 0.0015 -0.234415 -1.8714 0 -3.81281e-12 -5.67069e-12 0 0 9.46773e-28
1481 50 0.0015 0.579128 -1.8714 0 -2.62401e-12 -8.94929e-13 0 0 7.25424e-27
3529 118 0.0015 0.665887 -1.87136 0 5.04503e-12 1.57169e-12 0 1.57149e-20 1.09498e-26
2650 89 0.0015 -0.6044 -1.86922 0 2.99575e-12 -2.97804e-12 0 5.32605e-21 1.1623e-26
10303 344 0.0015 -0.49619 -1.86852 0 -3.76129e-12 -1.88271e-13 0 0 5.12732e-27
10302 344 0.0015 -0.493366 -1.86943 0 3.30067e-12 -3.16943e-13 0 0 4.32804e-27
6087 203 0.0015 -0.434641 -1.86821 0 -5.83799e-12 5.87831e-12 0 0 2.56912e-26
6085 203 0.0015 -0.431008 -1.86994 0 5.50304e-12 6.24304e-12 0 4.96948e-20 1.19967e-26
6086 203 0.0015 -0.432824 -1.86908 0 4.04707e-12 -1.15652e-11 0 2.48474e-20 2.70753e-26
8001 267 0.0015 -0.241392 -1.86876 0 4.57378e-12 -1.25296e-12 0 0 9.61019e-27
8000 267 0.0015 -0.239066 -1.86964 0 -6.44618e-12 1.75553e-12 0 0 1.53365e-26
8012 268 0.0015 -0.171924 -1.86923 0 4.63921e-13 1.26933e-12 0 1.90242e-21 3.67086e-27
10332 345 0.0015 -0.0679644 -1.86909 0 -2.51054e-12 1.43967e-11 0 0 1.07526e-25
1957 66 0.0015 0.0127576 -1.86871 0 -5.44282e-13 4.9868e-12 0 0 1.95013e-26
10269 343 0.0015 0.423451 -1.86924 0 -1.74375e-12 -8.54041e-12 0 1.24237e-20 4.2937e-26
1482 50 0.0015 0.581354 -1.86848 0 2.88322e-12 1.5082e-12 0 6.81478e-21 7.22782e-27
3528 118 0.0015 0.668424 -1.86944 0 -4.22383e-12 -1.38342e-12 0 0 8.26701e-27
2651 89 0.0015 -0.608121 -1.86636 0 -3.94384e-12 3.54638e-12 0 0 1.84177e-26
10305 344 0.0015 -0.501838 -1.8667 0 -1.92595e-12 7.22893e-13 0 0 5.33774e-27
10304 344 0.0015 -0.499014 -1.86761 0 4.51141e-12 -1.95948e-13 0 0 7.99086e-27
6089 203 0.0015 -0.438274 -1.86649 0 4.91174e-12 -3.1666e-12 0 0 1.34659e-26
6088 203 0.0015 -0.436457 -1.86735 0 -2.89886e-12 2.54169e-12 0 0 1.3603e-26
8004 267 0.0015 -0.248369 -1.86612 0 -5.46527e-13 1.82128e-12 0 2.00918e-20 5.1839e-27
8003 267 0.0015 -0.246044 -1.867 0 -1.56653e-12 2.82492e-12 0 2.00918e-20 2.0998e-27
8002 267 0.0015 -0.243718 -1.86788 0 -8.5732e-13 -2.29267e-12 0 1.00459e-20 1.95205e-27
8046 269 0.0015 0.152008 -1.86695 0 1.03757e-13 -1.6885e-12 0 0 3.17509e-27
6004 201 0.0015 0.499982 -1.86721 0 -6.0134e-13 -1.49516e-12 0 0 1.2145e-26
3527 118 0.0015 0.670962 -1.86752 0 3.71564e-13 4.17806e-13 0 0 3.19725e-27
10307 344 0.0015 -0.507486 -1.86489 0 1.01387e-11 -2.46425e-12 0 0 4.94906e-26
10306 344 0.0015 -0.504662 -1.8658 0 -4.15599e-12 -7.51621e-14 0 0 1.01658e-26
6090 203 0.0015 -0.440091 -1.86563 0 -8.63056e-13 4.77415e-13 0 0 5.41214e-28
8006 267 0.0015 -0.253021 -1.86436 0 -6.63032e-12 4.427e-12 0 2.00918e-20 2.09092e-26
8005 267 0.0015 -0.250695 -1.86524 0 4.5769e-12 -6.37945e-12 0 2.00918e-20 1.57408e-26
10333 345 0.0015 -0.0686412 -1.86599 0 1.93119e-12 -1.12285e-11 0 0 9.08255e-26
10203 341 0.0015 0.288506 -1.8653 0 -3.39093e-14 -2.03746e-13 0 7.37441e-21 2.97022e-27
4532 152 0.0015 0.364868 -1.86469 0 1.54413e-13 -7.25789e-13 0 1.14541e-20 1.20277e-27
10270 343 0.0015 0.424172 -1.86529 0 1.42508e-12 8.50514e-12 0 1.24237e-20 4.21515e-26
1483 50 0.0015 0.58358 -1.86557 0 -2.19607e-12 -1.06702e-12 0 6.81478e-21 3.689e-27
3526 118 0.0015 0.673499 -1.86561 0 3.82571e-12 5.10637e-14 0 0 4.63942e-27
2652 89 0.0015 -0.611842 -1.86351 0 2.04289e-12 -1.7906e-12 0 0 1.11953e-26
10310 344 0.0015 -0.515959 -1.86217 0 1.7572e-12 -3.04121e-12 0 3.36849e-20 2.97448e-27
10309 344 0.0015 -0.513134 -1.86307 0 3.34584e-12 3.25484e-13 0 3.36849e-20 2.05583e-26
10308 344 0.0015 -0.51031 -1.86398 0 -1.11237e-11 3.44108e-12 0 1.68424e-20 5.78495e-26
6036 202 0.0015 -0.337434 -1.86244 0 -4.78974e-13 7.68042e-13 0 0 3.92883e-27
8008 267 0.0015 -0.257673 -1.8626 0 -3.55355e-12 -5.02473e-12 0 1.00459e-20 9.59537e-27
8007 267 0.0015 -0.255347 -1.86348 0 7.82428e-12 1.04303e-12 0 2.00918e-20 1.67247e-26
10334 345 0.0015 -0.0693181 -1.86288 0 8.66648e-13 -1.50923e-12 0 0 9.43852e-27
1958 66 0.0015 0.0122775 -1.86393 0 -7.29399e-14 9.02869e-13 0 0 1.07142e-26
1484 50 0.0015 0.585807 -1.86266 0 3.16573e-12 2.35697e-12 0 6.81478e-21 7.33359e-27
3525 118 0.0015 0.676036 -1.86369 0 -3.82571e-12 -5.10637e-14 0 0 4.63942e-27
2653 89 0.0015 -0.615563 -1.86065 0 1.37691e-12 -9.20516e-13 0 0 2.76006e-27
10312 344 0.0015 -0.521607 -1.86035 0 -3.29909e-12 2.08542e-12 0 0 9.13674e-27
10311 344 0.0015 -0.518783 -1.86126 0 2.49342e-12 1.58338e-13 0 1.68424e-20 9.71728e-27
8010 267 0.0015 -0.262324 -1.86085 0 4.55713e-12 -2.69688e-12 0 0 1.87957e-26
8009 267 0.0015 -0.259998 -1.86172 0 -5.20568e-12 5.91904e-12 0 0 2.09024e-26
8047 269 0.0015 0.151313 -1.86021 0 -5.97586e-14 1.26723e-12 0 0 2.73881e-27
10271 343 0.0015 0.424893 -1.86133 0 -9.98021e-13 -7.70094e-12 0 2.48474e-20 3.36104e-26
3524 118 0.0015 0.678573 -1.86178 0 -3.71564e-13 -4.17806e-13 0 0 3.19725e-27
10314 344 0.0015 -0.527255 -1.85854 0 -1.3752e-12 2.24817e-12 0 3.36849e-20 4.98306e-27
10313 344 0.0015 -0.524431 -1.85944 0 -3.18634e-13 -1.18517e-12 0 1.68424e-20 3.42231e-28
10335 345 0.0015 -0.0699949 -1.85978 0 -1.15912e-12 3.25865e-12 0 0 8.05441e-27
1959 66 0.0015 0.0117974 -1.85915 0 6.47398e-13 -6.25321e-12 0 0 2.78184e-26
4771 160 0.0015 0.0785585 -1.85825 0 6.95222e-14 -2.35363e-12 0 0 1.41707e-26
10204 341 0.0015 0.287705 -1.85857 0 -1.36863e-13 8.93338e-13 0 7.37441e-21 1.82621e-27
6005 201 0.0015 0.502997 -1.85945 0 9.03427e-13 2.30398e-12 0 5.99535e-21 1.14749e-26
1485 50 0.0015 0.588033 -1.85975 0 -7.88822e-13 9.62984e-13 0 0 8.67384e-27
3523 118 0.0015 0.681111 -1.85986 0 4.22383e-12 1.38342e-12 0 0 8.26701e-27
2654 89 0.0015 -0.619284 -1.8578 0 -1.33638e-13 1.07195e-13 0 0 4.7977e-27
10316 344 0.0015 -0.532903 -1.85672 0 -5.82457e-12 4.31831e-12 0 3.36849e-20 2.15142e-26
10315 344 0.0015 -0.530079 -1.85763 0 3.57833e-12 -4.32247e-12 0 3.36849e-20 9.21912e-27
8013 268 0.0015 -0.167482 -1.85688 0 -1.73285e-13 -4.74438e-13 0 1.90242e-21 3.44476e-27
10336 345 0.0015 -0.0706718 -1.85667 0 7.61962e-13 -3.75698e-12 0 0 1.03201e-26
4533 152 0.0015 0.36352 -1.85607 0 -2.23881e-13 1.1321e-12 0 1.14541e-20 3.01976e-27
10272 343 0.0015 0.425614 -1.85738 0 7.68728e-13 6.44379e-12 0 3.72711e-20 2.46343e-26
1486 50 0.0015 0.59026 -1.85684 0 7.88822e-13 -9.62984e-13 0 0 8.67384e-27
3522 118 0.0015 0.683648 -1.85795 0 -5.04503e-12 -1.57169e-12 0 1.57149e-20 1.09498e-26
3521 118 0.0015 0.686185 -1.85603 0 3.37598e-12 5.21269e-13 0 1.57149e-20 5.29034e-27
2655 89 0.0015 -0.623004 -1.85494 0 -2.35071e-12 1.71071e-12 0 0 5.59119e-27
10318 344 0.0015 -0.538552 -1.85491 0 -4.26273e-12 -2.45606e-12 0 1.68424e-20 1.37127e-26
10317 344 0.0015 -0.535727 -1.85581 0 8.50328e-12 -1.5723e-12 0 1.68424e-20 3.04263e-26
6037 202 0.0015 -0.342237 -1.85471 0 3.68103e-13 -5.21164e-13 0 0 2.47085e-27
1960 66 0.0015 0.0113172 -1.85437 0 -9.17483e-13 8.65313e-12 0 0 5.10947e-26
3520 118 0.0015 0.688722 -1.85412 0 -1.01494e-12 4.41683e-14 0 3.14298e-20 3.87226e-28
2656 89 0.0015 -0.626725 -1.85209 0 2.40465e-12 -1.89577e-12 0 5.32605e-21 6.13653e-27
10320 344 0.0015 -0.5442 -1.85309 0 2.68885e-12 -1.61723e-12 0 0 7.68852e-27
10319 344 0.0015 -0.541376 -1.854 0 -2.75068e-12 3.74622e-12 0 0 8.10405e-27
10337 345 0.0015 -0.0713486 -1.85356 0 -1.14144e-12 8.04642e-12 0 0 2.97815e-26
8048 269 0.0015 0.150617 -1.85348 0 -1.40849e-13 9.53745e-13 0 3.6872e-21 1.98452e-27
10273 343 0.0015 0.426335 -1.85342 0 3.60677e-13 1.11601e-12 0 3.72711e-20 2.20367e-26
1487 50 0.0015 0.592486 -1.85392 0 -3.16573e-12 -2.35697e-12 0 6.81478e-21 7.33359e-27
3519 118 0.0015 0.69126 -1.8522 0 -4.9121e-14 8.97176e-13 0 3.14298e-20 1.34581e-28
10338 345 0.0015 -0.0720254 -1.85046 0 1.97155e-12 -1.25529e-11 0 0 7.57237e-26
10205 341 0.0015 0.286904 -1.85184 0 1.07459e-14 4.22153e-13 0 3.6872e-21 2.28208e-28
6006 201 0.0015 0.506013 -1.85168 0 -2.99112e-13 -7.91087e-13 0 1.19907e-20 9.44662e-28
1488 50 0.0015 0.594712 -1.85101 0 2.19607e-12 1.06702e-12 0 6.81478e-21 3.689e-27
3518 118 0.0015 0.693797 -1.85028 0 3.14875e-12 4.51627e-13 0 3.14298e-20 8.88837e-27
2657 89 0.0015 -0.630446 -1.84923 0 -1.05073e-12 9.40118e-13 0 5.32605e-21 2.64245e-27
1961 66 0.0015 0.0108371 -1.84959 0 2.04472e-13 -1.62047e-12 0 0 4.4542e-26
4772 160 0.0015 0.0782973 -1.84905 0 -9.26253e-14 3.02738e-12 0 0 1.53323e-26
10274 343 0.0015 0.427056 -1.84946 0 -1.2296e-12 -6.5145e-12 0 2.48474e-20 2.48248e-26
1489 50 0.0015 0.596939 -1.8481 0 -2.88322e-12 -1.5082e-12 0 6.81478e-21 7.22782e-27
3517 118 0.0015 0.696334 -1.84837 0 -2.37547e-12 -2.04166e-13 0 1.57149e-20 9.90245e-27
2658 89 0.0015 -0.634167 -1.84638 0 -3.42722e-12 2.53549e-12 0 5.32605e-21 2.34702e-26
6038 202 0.0015 -0.34704 -1.84697 0 -1.1391e-12 1.72459e-12 0 0 5.44014e-27
10339 345 0.0015 -0.0727023 -1.84735 0 -2.77518e-12 1.58974e-11 0 0 1.14806e-25
8049 269 0.0015 0.149922 -1.84674 0 4.48707e-14 -4.04858e-13 0 3.6872e-21 2.69541e-27
6541 219 0.0015 0.213251 -1.84656 0 -7.59315e-14 1.04828e-12 0 0 2.18123e-27
4534 152 0.0015 0.362172 -1.84745 0 3.18078e-13 -1.92674e-12 0 1.14541e-20 4.71417e-27
3516 118 0.0015 0.698871 -1.84645 0 -5.27483e-12 -3.98847e-12 0 0 2.76578e-26
8014 268 0.0015 -0.163039 -1.84452 0 -2.76427e-13 -7.59437e-13 0 1.90242e-21 1.19338e-27
10340 345 0.0015 -0.0733791 -1.84424 0 1.8474e-12 -1.12433e-11 0 0 6.79005e-26
1962 66 0.0015 0.010357 -1.84481 0 7.16419e-13 -7.03491e-12 0 0 3.368e-26
10206 341 0.0015 0.286103 -1.84511 0 3.66523e-14 -5.16525e-13 0 3.6872e-21 2.76193e-28
10275 343 0.0015 0.427777 -1.84551 0 6.36229e-13 2.59322e-12 0 1.24237e-20 9.89643e-27
1490 50 0.0015 0.599165 -1.84519 0 2.62401e-12 8.94929e-13 0 0 7.25424e-27
3515 118 0.0015 0.701409 -1.84454 0 6.69724e-12 3.72285e-12 0 0 3.04481e-26
2659 89 0.0015 -0.637888 -1.84352 0 5.51975e-12 -4.32455e-12 0 5.32605e-21 3.34473e-26
6007 201 0.0015 0.509028 -1.84391 0 8.96579e-13 2.31991e-12 0 1.19907e-20 9.18717e-27
1491 50 0.0015 0.601391 -1.84228 0 -8.405e-14 1.92815e-12 0 0 1.43868e-27
3514 118 0.0015 0.703946 -1.84262 0 -2.65433e-12 -8.4973e-13 0 0 4.16417e-27
2660 89 0.0015 -0.641609 -1.84066 0 -2.04053e-12 1.84755e-12 0 5.32605e-21 9.97827e-27
10341 345 0.0015 -0.074056 -1.84114 0 -1.98246e-12 1.08782e-11 0 0 6.32727e-26
1963 66 0.0015 0.00987681 -1.84004 0 -3.45457e-13 2.80415e-12 0 5.20104e-21 2.1628e-26
10276 343 0.0015 0.428498 -1.84155 0 -6.36229e-13 -2.59322e-12 0 1.24237e-20 9.89643e-27
3513 118 0.0015 0.706483 -1.84071 0 -8.57748e-13 -1.03701e-12 0 0 3.20565e-27
6039 202 0.0015 -0.351842 -1.83924 0 5.353e-13 -7.95043e-13 0 0 3.27355e-27
10342 345 0.0015 -0.0747328 -1.83803 0 2.81758e-12 -1.26397e-11 0 0 7.7272e-26
4773 160 0.0015 0.0780361 -1.83985 0 3.02603e-14 -8.07479e-13 0 0 1.20736e-27
8050 269 0.0015 0.149226 -1.84 0 3.50453e-13 -3.25222e-12 0 3.6872e-21 1.39664e-26
6542 219 0.0015 0.21269 -1.83947 0 1.15235e-13 -1.81978e-12 0 0 3.35868e-27
10207 341 0.0015 0.285302 -1.83839 0 -3.05265e-13 2.47809e-12 0 3.6872e-21 1.01781e-26
4535 152 0.0015 0.360823 -1.83883 0 1.76693e-13 -9.78986e-13 0 1.14541e-20 9.82689e-27
1492 50 0.0015 0.603618 -1.83936 0 -1.19685e-12 -2.39941e-12 0 0 3.59434e-27
3512 118 0.0015 0.70902 -1.83879 0 7.385e-12 5.61631e-12 0 0 5.19231e-26
2661 89 0.0015 -0.64533 -1.83781 0 -3.09553e-13 1.31099e-13 0 5.32605e-21 1.19236e-28
10277 343 0.0015 0.429219 -1.8376 0 1.2296e-12 6.5145e-12 0 2.48474e-20 2.48248e-26
6008 201 0.0015 0.512043 -1.83614 0 -7.34145e-13 -1.85923e-12 0 5.99535e-21 8.42405e-27
1493 50 0.0015 0.605844 -1.83645 0 2.06704e-12 2.09909e-12 0 0 4.35204e-27
3511 118 0.0015 0.711558 -1.83688 0 -5.94571e-12 -4.48198e-12 0 0 4.89587e-26
2662 89 0.0015 -0.649051 -1.83495 0 1.0589e-12 -9.20733e-13 0 0 1.69204e-27
10343 345 0.0015 -0.0754097 -1.83493 0 -1.29961e-12 3.43553e-12 0 0 2.51428e-26
1964 66 0.0015 0.00939668 -1.83526 0 -3.78372e-13 4.43845e-12 0 1.04021e-20 1.68694e-26
2663 89 0.0015 -0.652772 -1.8321 0 -9.38576e-13 7.83352e-13 0 0 1.59309e-27
10171 340 0.0015 -0.234195 -1.83312 0 -5.23814e-13 7.61301e-13 0 0 1.85421e-27
8015 268 0.0015 -0.158597 -1.83216 0 2.13896e-14 5.32097e-14 0 3.80484e-21 1.13249e-27
8051 269 0.0015 0.14853 -1.83326 0 -2.90677e-13 2.7501e-12 0 0 1.3272e-26
6543 219 0.0015 0.212128 -1.83239 0 2.73184e-13 -2.74413e-12 0 3.51396e-21 2.57742e-26
10278 343 0.0015 0.429939 -1.83364 0 -3.60677e-13 -1.11601e-12 0 3.72711e-20 2.20367e-26
1494 50 0.0015 0.60807 -1.83354 0 9.5763e-13 2.91939e-12 0 0 2.11593e-26
6040 202 0.0015 -0.356645 -1.83151 0 4.89573e-13 -8.3111e-13 0 0 1.67639e-27
10344 345 0.0015 -0.0760865 -1.83182 0 1.2525e-12 -2.71164e-12 0 1.57149e-20 1.91057e-26
1965 66 0.0015 0.00891654 -1.83048 0 7.15872e-13 -7.43258e-12 0 1.56031e-20 3.7499e-26
4774 160 0.0015 0.0777749 -1.83066 0 2.96566e-14 -1.34018e-12 0 2.71488e-21 5.60153e-27
10208 341 0.0015 0.284501 -1.83166 0 1.31973e-13 -1.12007e-12 0 7.37441e-21 1.27878e-26
4536 152 0.0015 0.359475 -1.83021 0 -4.56722e-13 2.65916e-12 0 1.14541e-20 9.94729e-27
1495 50 0.0015 0.610297 -1.83063 0 -3.29742e-12 -6.20351e-12 0 6.81478e-21 2.59753e-26
2664 89 0.0015 -0.656493 -1.82924 0 -5.53599e-13 3.44544e-13 0 0 7.94895e-28
10345 345 0.0015 -0.0767633 -1.82871 0 -2.24221e-12 8.754e-12 0 1.57149e-20 3.60306e-26
10279 343 0.0015 0.43066 -1.82968 0 -7.68728e-13 -6.44379e-12 0 3.72711e-20 2.46343e-26
6009 201 0.0015 0.515058 -1.82837 0 -6.31987e-13 -1.62555e-12 0 0 7.83643e-27
2665 89 0.0015 -0.660213 -1.82639 0 1.93679e-12 -1.34847e-12 0 5.32605e-21 4.05245e-27
10172 340 0.0015 -0.238704 -1.82673 0 1.42541e-12 -2.04404e-12 0 0 7.19259e-27
8052 269 0.0015 0.147835 -1.82652 0 -3.51081e-13 3.31412e-12 0 1.10616e-20 2.23549e-26
1496 50 0.0015 0.612523 -1.82772 0 1.10672e-12 2.65767e-12 0 6.81478e-21 6.92657e-27
10346 345 0.0015 -0.0774402 -1.82561 0 8.59109e-13 -4.47813e-12 0 1.57149e-20 1.88896e-26
1966 66 0.0015 0.0084364 -1.8257 0 -4.30506e-13 4.16385e-12 0 1.04021e-20 2.2145e-26
6544 219 0.0015 0.211567 -1.8253 0 -5.94569e-13 6.64659e-12 0 7.02791e-21 4.41091e-26
10209 341 0.0015 0.2837 -1.82493 0 6.77199e-13 -5.37379e-12 0 3.6872e-21 3.62651e-26
10280 343 0.0015 0.431381 -1.82573 0 9.98021e-13 7.70094e-12 0 2.48474e-20 3.36104e-26
1497 50 0.0015 0.614749 -1.8248 0 -3.55351e-12 -4.64268e-12 0 6.81478e-21 3.2709e-26
2666 89 0.0015 -0.663934 -1.82353 0 -1.65611e-12 1.17975e-12 0 5.32605e-21 3.53632e-27
6041 202 0.0015 -0.361448 -1.82377 0 -8.63812e-13 1.45566e-12 0 0 3.63354e-27
10347 345 0.0015 -0.078117 -1.8225 0 1.16922e-12 -2.52949e-12 0 1.57149e-20 6.22575e-27
2667 89 0.0015 -0.667655 -1.82068 0 5.25337e-13 -4.31932e-13 0 5.32605e-21 3.3036e-28
10173 340 0.0015 -0.243212 -1.82034 0 -7.26865e-13 1.00347e-12 0 0 5.57331e-27
1967 66 0.0015 0.00795626 -1.82092 0 1.33145e-13 -7.48811e-13 0 5.20104e-21 5.72082e-28
4775 160 0.0015 0.0775136 -1.82146 0 -1.01032e-13 3.87843e-12 0 2.71488e-21 2.03437e-26
4537 152 0.0015 0.358127 -1.82159 0 1.0436e-13 -5.45773e-13 0 5.72705e-21 2.05238e-27
10281 343 0.0015 0.432102 -1.82177 0 -1.42508e-12 -8.50514e-12 0 1.24237e-20 4.21515e-26
6010 201 0.0015 0.518074 -1.8206 0 1.45257e-12 3.56056e-12 0 0 1.71431e-26
1498 50 0.0015 0.616976 -1.82189 0 4.28525e-12 4.90367e-12 0 0 3.33827e-26
8016 268 0.0015 -0.154154 -1.81981 0 -5.07218e-14 -1.5032e-13 0 3.80484e-21 1.4815e-27
10348 345 0.0015 -0.0787939 -1.81939 0 -1.6579e-12 2.98663e-12 0 1.57149e-20 6.55788e-27
8053 269 0.0015 0.147139 -1.81978 0 4.9191e-13 -4.49283e-12 0 1.47488e-20 2.45053e-26
6545 219 0.0015 0.211005 -1.81821 0 4.59169e-13 -5.16261e-12 0 7.02791e-21 2.77244e-26
10210 341 0.0015 0.282899 -1.8182 0 -6.19222e-13 4.48591e-12 0 3.6872e-21 3.3768e-26
1499 50 0.0015 0.619202 -1.81898 0 1.82647e-12 2.798e-12 0 0 1.83749e-26
2668 89 0.0015 -0.671376 -1.81782 0 -8.7327e-13 7.09313e-13 0 1.59781e-20 1.10531e-27
6042 202 0.0015 -0.366251 -1.81604 0 1.18712e-13 -2.31107e-13 0 0 3.05295e-27
10349 345 0.0015 -0.0794707 -1.81629 0 1.4759e-12 -3.0979e-12 0 1.57149e-20 6.89028e-27
1968 66 0.0015 0.00747613 -1.81614 0 -7.24893e-13 6.39487e-12 0 0 4.52865e-26
10282 343 0.0015 0.432823 -1.81781 0 1.74375e-12 8.54041e-12 0 1.24237e-20 4.2937e-26
1500 50 0.0015 0.621428 -1.81607 0 -2.50833e-12 -3.32577e-12 0 0 1.76677e-26
2669 89 0.0015 -0.675097 -1.81497 0 1.38977e-12 -9.68542e-13 0 1.59781e-20 1.87055e-27
5941 199 0.0015 0.740778 -1.81551 0 -1.93216e-14 -7.22379e-14 0 0 1.49151e-29
2670 89 0.0015 -0.678818 -1.81211 0 -6.74874e-13 4.36677e-13 0 1.59781e-20 8.36387e-28
10174 340 0.0015 -0.24772 -1.81396 0 8.35661e-14 -5.76211e-14 0 0 6.25657e-28
10350 345 0.0015 -0.0801475 -1.81318 0 -8.14094e-13 2.61086e-12 0 0 6.5543e-27
4776 160 0.0015 0.0772524 -1.81226 0 1.09811e-13 -4.01466e-12 0 2.71488e-21 2.14194e-26
8054 269 0.0015 0.146443 -1.81304 0 -1.78808e-13 1.25657e-12 0 1.47488e-20 2.24446e-27
4538 152 0.0015 0.356779 -1.81297 0 2.69198e-13 -1.61049e-12 0 0 4.46836e-27
10283 343 0.0015 0.433544 -1.81386 0 -1.30607e-12 -5.54359e-12 0 1.24237e-20 2.04437e-26
6011 201 0.0015 0.521089 -1.81283 0 -8.65665e-13 -1.82165e-12 0 0 9.32695e-27
1969 66 0.0015 0.00699599 -1.81136 0 9.78163e-13 -9.19603e-12 0 0 6.06792e-26
6546 219 0.0015 0.210443 -1.81113 0 -2.55662e-13 3.18327e-12 0 3.51396e-21 1.08429e-26
10211 341 0.0015 0.282098 -1.81148 0 8.34238e-14 3.51911e-13 0 0 9.47894e-28
6043 202 0.0015 -0.371054 -1.8083 0 1.1701e-12 -1.9052e-12 0 0 7.49209e-27
10284 343 0.0015 0.434265 -1.8099 0 6.0545e-13 2.70916e-12 0 1.24237e-20 4.70299e-27
10175 340 0.0015 -0.252228 -1.80757 0 -1.59658e-12 2.19529e-12 0 0 1.1779e-26
8017 268 0.0015 -0.149712 -1.80745 0 6.39567e-13 1.796e-12 0 1.90242e-21 7.97915e-27
1970 66 0.0015 0.00651585 -1.80658 0 -3.72481e-13 3.611e-12 0 0 1.59875e-26
8055 269 0.0015 0.145748 -1.8063 0 2.75878e-13 -2.072e-12 0 3.6872e-21 6.83485e-27
5942 199 0.0015 0.743061 -1.80618 0 5.16489e-13 2.06225e-12 0 0 1.1241e-26