ITEM: TIMESTEP
94170
ITEM: NUMBER OF ATOMS
10500
ITEM: BOX BOUNDS pp pp pp
-1.0249999999999999e+00 1.0249999999999999e+00
-2.0000000000000000e+00 2.0000000000000000e+00
-5.0000000000000003e-02 5.0000000000000003e-02
ITEM: ATOMS id type radius x y z fx fy fz c_bendingE c_stretchingE
10321 345 0.0015 -0.0605191 -1.90326 0 2.55386e-12 -1.06953e-11 0 0 1.06734e-25
6031 202 0.0015 -0.31342 -1.90111 0 -1.59636e-12 2.53984e-12 0 0 2.27564e-26
10322 345 0.0015 -0.061196 -1.90016 0 -3.41298e-12 1.33446e-11 0 0 1.13517e-25
8041 269 0.0015 0.155487 -1.90065 0 1.07509e-13 -1.23995e-12 0 3.6872e-21 2.9143e-27
10261 343 0.0015 0.417684 -1.90089 0 -2.46912e-13 -2.84689e-12 0 1.24237e-20 9.04154e-27
1471 50 0.0015 0.556864 -1.90052 0 8.62267e-13 1.17249e-12 0 0 2.15608e-27
10323 345 0.0015 -0.0618728 -1.89705 0 1.16712e-12 -4.78977e-12 0 0 1.08918e-26
1951 66 0.0015 0.0156385 -1.89738 0 -8.80354e-13 8.68528e-12 0 0 1.01673e-25
10262 343 0.0015 0.418405 -1.89694 0 4.28702e-13 6.65847e-12 0 2.48474e-20 2.50229e-26
1472 50 0.0015 0.559091 -1.8976 0 -3.23694e-12 -4.31374e-12 0 6.81478e-21 1.79445e-26
2641 89 0.0015 -0.570912 -1.89491 0 -2.41616e-12 1.76103e-12 0 0 1.16389e-26
1473 50 0.0015 0.561317 -1.89469 0 3.9685e-12 5.27132e-12 0 1.36296e-20 2.29941e-26
2642 89 0.0015 -0.574633 -1.89206 0 3.26603e-12 -2.10198e-12 0 0 1.26519e-26
6032 202 0.0015 -0.318223 -1.89337 0 2.16898e-12 -3.36782e-12 0 0 2.5313e-26
10324 345 0.0015 -0.0625496 -1.89394 0 -1.5902e-12 9.22247e-12 0 0 4.97949e-26
1952 66 0.0015 0.0151583 -1.8926 0 1.83052e-12 -1.79962e-11 0 0 2.18538e-25
8042 269 0.0015 0.154791 -1.89391 0 -3.56715e-13 3.94776e-12 0 3.6872e-21 1.68278e-26
10263 343 0.0015 0.419126 -1.89298 0 -1.05667e-12 -1.07731e-11 0 3.72711e-20 7.08041e-26
3540 118 0.0015 0.637977 -1.89243 0 5.21895e-12 4.71926e-12 0 1.57149e-20 4.33796e-26
6061 203 0.0015 -0.387409 -1.89062 0 -3.18652e-13 -3.7678e-13 0 0 8.91956e-30
10325 345 0.0015 -0.0632265 -1.89084 0 2.1316e-12 -1.07972e-11 0 0 5.85111e-26
10231 342 0.0015 0.215 -1.89 0 -1.67217e-12 0 0 0 5.35804e-28
10232 342 0.0015 0.21569 -1.89 0 1.4124e-12 0 0 0 5.48732e-28
10233 342 0.0015 0.216379 -1.89 0 3.00635e-12 0 0 0 1.45807e-27
10234 342 0.0015 0.217069 -1.89 0 -6.4109e-12 0 0 0 4.01774e-27
10235 342 0.0015 0.217759 -1.89 0 7.6422e-12 0 0 0 5.60423e-27
10236 342 0.0015 0.218448 -1.89 0 -9.59813e-12 0 0 0 9.08334e-27
10237 342 0.0015 0.219138 -1.89 0 1.30396e-11 0 0 0 1.65963e-26
10238 342 0.0015 0.219828 -1.89 0 -1.44162e-11 0 0 0 1.99232e-26
10239 342 0.0015 0.220517 -1.89 0 1.35462e-11 0 0 0 1.75969e-26
10240 342 0.0015 0.221207 -1.89 0 -1.52486e-11 0 0 0 2.27159e-26
10241 342 0.0015 0.221897 -1.89 0 1.67706e-11 0 0 0 2.69769e-26
10242 342 0.0015 0.222586 -1.89 0 -1.35829e-11 0 0 0 1.82993e-26
10243 342 0.0015 0.223276 -1.89 0 1.12283e-11 0 0 0 1.20806e-26
10244 342 0.0015 0.223966 -1.89 0 -1.32936e-11 0 0 0 1.72572e-26
10245 342 0.0015 0.224655 -1.89 0 1.81834e-11 0 0 0 3.2548e-26
10246 342 0.0015 0.225345 -1.89 0 -1.81834e-11 0 0 0 3.2548e-26
10247 342 0.0015 0.226034 -1.89 0 1.32936e-11 0 0 0 1.72572e-26
10248 342 0.0015 0.226724 -1.89 0 -1.12283e-11 0 0 0 1.20806e-26
10249 342 0.0015 0.227414 -1.89 0 1.35829e-11 0 0 0 1.82993e-26
10250 342 0.0015 0.228103 -1.89 0 -1.67706e-11 0 0 0 2.69769e-26
10251 342 0.0015 0.228793 -1.89 0 1.52486e-11 0 0 0 2.27159e-26
10252 342 0.0015 0.229483 -1.89 0 -1.35462e-11 0 0 0 1.75969e-26
10253 342 0.0015 0.230172 -1.89 0 1.44162e-11 0 0 0 1.99232e-26
10254 342 0.0015 0.230862 -1.89 0 -1.30396e-11 0 0 0 1.65963e-26
10255 342 0.0015 0.231552 -1.89 0 9.59813e-12 0 0 0 9.08334e-27
10256 342 0.0015 0.232241 -1.89 0 -7.6422e-12 0 0 0 5.60423e-27
10257 342 0.0015 0.232931 -1.89 0 6.4109e-12 0 0 0 4.01774e-27
10258 342 0.0015 0.233621 -1.89 0 -3.00635e-12 0 0 0 1.45807e-27
10259 342 0.0015 0.23431 -1.89 0 -1.4124e-12 0 0 0 5.48732e-28
10260 342 0.0015 0.235 -1.89 0 1.67217e-12 0 0 0 5.35804e-28
6001 201 0.0015 0.490936 -1.89052 0 1.05914e-12 2.74679e-12 0 5.99535e-21 2.0061e-26
1474 50 0.0015 0.563543 -1.89178 0 8.45893e-13 1.30913e-12 0 1.36296e-20 2.52867e-26
3539 118 0.0015 0.640514 -1.89051 0 -5.36896e-12 -5.8063e-12 0 1.57149e-20 4.39096e-26
2643 89 0.0015 -0.578354 -1.8892 0 -1.04327e-13 -5.35942e-13 0 0 2.66277e-27
6063 203 0.0015 -0.391043 -1.8889 0 -1.10715e-11 6.06131e-12 0 0 4.45067e-26
6064 203 0.0015 -0.392859 -1.88804 0 -2.08449e-12 -1.04208e-11 0 0 2.57543e-26
6062 203 0.0015 -0.389226 -1.88976 0 7.06404e-12 -1.0002e-12 0 0 2.49653e-26
10264 343 0.0015 0.419847 -1.88903 0 1.35562e-12 1.05002e-11 0 3.72711e-20 6.90398e-26
1475 50 0.0015 0.56577 -1.88887 0 -2.4108e-12 -4.48721e-12 0 1.36296e-20 1.87574e-26
3538 118 0.0015 0.643052 -1.8886 0 -2.02383e-12 -7.09455e-13 0 1.57149e-20 7.53972e-27
2644 89 0.0015 -0.582074 -1.88635 0 -3.2914e-12 2.66273e-12 0 0 1.42258e-26
6066 203 0.0015 -0.396492 -1.88631 0 -6.79713e-12 -3.39204e-12 0 2.48474e-20 1.12853e-26
6065 203 0.0015 -0.394676 -1.88717 0 1.28469e-11 8.82592e-12 0 0 1.74677e-26
7981 267 0.0015 -0.194876 -1.88635 0 2.87139e-12 -1.96077e-12 0 0 7.888e-27
10326 345 0.0015 -0.0639033 -1.88773 0 -1.89533e-12 8.7883e-12 0 0 3.65163e-26
1953 66 0.0015 0.0146782 -1.88782 0 -1.11826e-12 1.09625e-11 0 0 1.20542e-25
8043 269 0.0015 0.154095 -1.88717 0 7.47583e-13 -7.73108e-12 0 7.37441e-21 6.18664e-26
3537 118 0.0015 0.645589 -1.88668 0 4.88847e-12 4.12349e-12 0 0 1.82561e-26
6068 203 0.0015 -0.400126 -1.88459 0 -9.47254e-12 1.1009e-11 0 4.96948e-20 4.95413e-26
6067 203 0.0015 -0.398309 -1.88545 0 5.60379e-12 -5.36934e-12 0 2.48474e-20 2.87191e-26
6033 202 0.0015 -0.323025 -1.88564 0 -2.14399e-13 1.3514e-13 0 0 4.08554e-27
7983 267 0.0015 -0.199527 -1.8846 0 3.02836e-12 -3.09662e-12 0 0 6.45421e-27
7982 267 0.0015 -0.197202 -1.88548 0 -5.32334e-12 3.5814e-12 0 0 1.35643e-26
10327 345 0.0015 -0.0645802 -1.88463 0 1.12483e-12 -7.43278e-12 0 0 2.84542e-26
10265 343 0.0015 0.420568 -1.88507 0 -6.06174e-13 -3.69598e-12 0 3.72711e-20 1.42521e-26
1476 50 0.0015 0.567996 -1.88596 0 -3.80124e-12 -2.6146e-12 0 6.81478e-21 2.82178e-26
3536 118 0.0015 0.648126 -1.88476 0 -3.05971e-12 -2.16088e-12 0 0 1.12735e-26
2645 89 0.0015 -0.585795 -1.88349 0 5.07144e-12 -2.95727e-12 0 0 2.21921e-26
6071 203 0.0015 -0.405575 -1.882 0 -5.36354e-12 -1.66571e-11 0 0 1.51975e-27
6070 203 0.0015 -0.403759 -1.88287 0 7.91549e-13 5.44842e-12 0 2.48474e-20 7.50722e-28
6069 203 0.0015 -0.401942 -1.88373 0 4.46595e-12 -6.43661e-12 0 2.48474e-20 2.11057e-26
7985 267 0.0015 -0.204179 -1.88284 0 -5.99274e-12 -6.82564e-12 0 0 3.61236e-27
7984 267 0.0015 -0.201853 -1.88372 0 2.12212e-12 4.84824e-12 0 0 2.00173e-27
1954 66 0.0015 0.0141981 -1.88304 0 2.52091e-13 -2.60755e-12 0 5.20104e-21 4.90531e-27
6002 201 0.0015 0.493952 -1.88275 0 -2.33985e-12 -5.93212e-12 0 1.19907e-20 4.734e-26
1477 50 0.0015 0.570222 -1.88304 0 5.39754e-12 5.48147e-12 0 6.81478e-21 3.35639e-26
3535 118 0.0015 0.650663 -1.88285 0 -2.653e-12 -2.82824e-12 0 1.57149e-20 1.41337e-26
2646 89 0.0015 -0.589516 -1.88064 0 -2.73884e-12 3.30846e-13 0 0 9.76887e-27
6073 203 0.0015 -0.409209 -1.88028 0 -7.39441e-12 -1.06137e-11 0 0 2.17725e-27
6072 203 0.0015 -0.407392 -1.88114 0 9.96862e-12 2.37996e-11 0 0 1.04594e-27
7988 267 0.0015 -0.211156 -1.8802 0 1.96239e-12 -5.67548e-12 0 1.00459e-20 5.29072e-27
7987 267 0.0015 -0.208831 -1.88108 0 -1.49819e-12 1.38827e-12 0 1.00459e-20 1.74209e-27
7986 267 0.0015 -0.206505 -1.88196 0 4.02288e-12 4.41484e-12 0 0 2.46907e-27
8011 268 0.0015 -0.176367 -1.88159 0 2.40695e-13 6.76128e-13 0 0 1.87869e-27
10328 345 0.0015 -0.065257 -1.88152 0 -1.20758e-12 9.744e-12 0 0 5.38476e-26
8044 269 0.0015 0.1534 -1.88043 0 -9.67385e-13 9.70265e-12 0 7.37441e-21 8.95732e-26
10266 343 0.0015 0.421289 -1.88111 0 5.12276e-13 1.20425e-12 0 2.48474e-20 1.385e-27
1478 50 0.0015 0.572449 -1.88013 0 -1.27879e-13 -3.3211e-13 0 0 1.04724e-26
3534 118 0.0015 0.653201 -1.88093 0 4.76763e-12 3.36892e-12 0 1.57149e-20 1.70903e-26
10292 344 0.0015 -0.465124 -1.8785 0 -6.69348e-12 -5.20156e-13 0 3.36849e-20 1.77883e-26
10291 344 0.0015 -0.4623 -1.87941 0 2.2415e-12 3.13777e-13 0 1.68424e-20 3.42257e-27
6074 203 0.0015 -0.411025 -1.87942 0 -3.43818e-12 -7.76193e-12 0 0 3.86669e-27
6075 203 0.0015 -0.412842 -1.87856 0 1.53224e-11 8.53127e-12 0 2.48474e-20 4.14877e-26
7990 267 0.0015 -0.215808 -1.87844 0 -3.06145e-12 -5.32898e-12 0 0 6.65855e-28
7989 267 0.0015 -0.213482 -1.87932 0 -1.85133e-13 6e-12 0 1.00459e-20 3.62915e-27
10329 345 0.0015 -0.0659339 -1.87841 0 3.07592e-12 -1.66862e-11 0 0 1.28836e-25
1955 66 0.0015 0.0137179 -1.87827 0 -3.39661e-13 3.3897e-12 0 5.20104e-21 9.21762e-27
10201 341 0.0015 0.290108 -1.87875 0 -3.96435e-15 -2.91152e-13 0 0 1.56784e-28
3533 118 0.0015 0.655738 -1.87902 0 -5.99525e-13 2.35532e-12 0 1.57149e-20 9.80302e-27
2647 89 0.0015 -0.593237 -1.87778 0 1.02299e-12 8.54432e-13 0 0 6.76478e-28
10294 344 0.0015 -0.470773 -1.87669 0 -5.00016e-13 -3.53573e-12 0 1.68424e-20 6.21612e-28
10293 344 0.0015 -0.467948 -1.87759 0 4.15391e-12 2.01523e-12 0 3.36849e-20 1.49431e-26
6077 203 0.0015 -0.416475 -1.87683 0 1.46313e-11 1.89116e-12 0 2.48474e-20 4.54866e-26
6076 203 0.0015 -0.414658 -1.87769 0 -1.87137e-11 -1.79761e-12 0 2.48474e-20 7.28728e-26
6034 202 0.0015 -0.327828 -1.87791 0 -1.76793e-13 4.76456e-13 0 0 1.72654e-27
7992 267 0.0015 -0.22046 -1.87668 0 -4.84652e-12 7.68325e-13 0 0 8.19206e-27
7991 267 0.0015 -0.218134 -1.87756 0 5.26211e-12 3.2219e-12 0 0 6.08223e-27
10267 343 0.0015 0.42201 -1.87716 0 -5.97874e-14 1.05153e-12 0 1.24237e-20 6.38501e-27
1479 50 0.0015 0.574675 -1.87722 0 5.73297e-13 1.70731e-12 0 6.81478e-21 1.91149e-26
3532 118 0.0015 0.658275 -1.8771 0 -1.75544e-12 -6.58582e-12 0 0 1.27449e-26
2648 89 0.0015 -0.596958 -1.87493 0 6.50225e-13 -1.10255e-12 0 5.32605e-21 4.84387e-27
10296 344 0.0015 -0.476421 -1.87487 0 5.48034e-12 -1.00729e-12 0 0 1.68477e-26
10295 344 0.0015 -0.473597 -1.87578 0 -2.17671e-13 2.33658e-12 0 0 1.14069e-27
6080 203 0.0015 -0.421925 -1.87425 0 -1.09029e-12 -6.22606e-12 0 0 1.06069e-27
6079 203 0.0015 -0.420108 -1.87511 0 5.10396e-12 4.08031e-12 0 0 1.08205e-26
6078 203 0.0015 -0.418291 -1.87597 0 -1.11492e-11 -2.72205e-12 0 0 2.22257e-26
7995 267 0.0015 -0.227437 -1.87404 0 -1.59364e-12 1.27169e-12 0 3.01377e-20 1.2155e-26
7994 267 0.0015 -0.225111 -1.87492 0 7.85233e-12 -2.2499e-12 0 2.00918e-20 2.30078e-26
7993 267 0.0015 -0.222785 -1.8758 0 -2.79035e-12 -6.99472e-13 0 1.00459e-20 1.5949e-26
10330 345 0.0015 -0.0666107 -1.87531 0 -2.42614e-12 1.04576e-11 0 0 8.10902e-26
6003 201 0.0015 0.496967 -1.87498 0 1.64161e-12 3.80211e-12 0 1.19907e-20 2.84313e-26
1480 50 0.0015 0.576901 -1.87431 0 -3.93782e-12 -6.257e-12 0 6.81478e-21 2.76225e-26
3531 118 0.0015 0.660812 -1.87519 0 4.27942e-12 9.17253e-12 0 0 4.15541e-26
2649 89 0.0015 -0.600679 -1.87207 0 -4.28509e-12 3.00736e-12 0 1.06521e-20 1.94637e-26
10299 344 0.0015 -0.484893 -1.87215 0 -2.62825e-12 6.57174e-12 0 0 8.43579e-27
10298 344 0.0015 -0.482069 -1.87306 0 2.9725e-12 -4.58196e-12 0 0 7.37868e-27
10297 344 0.0015 -0.479245 -1.87396 0 -6.30882e-12 1.66298e-12 0 0 1.9535e-26
6082 203 0.0015 -0.425558 -1.87252 0 6.80229e-12 -3.99421e-12 0 2.48474e-20 4.41512e-26
6081 203 0.0015 -0.423741 -1.87338 0 2.64302e-12 4.10554e-12 0 0 6.04264e-28
7997 267 0.0015 -0.232089 -1.87228 0 -9.78732e-12 -2.06499e-14 0 1.00459e-20 3.60454e-26
7996 267 0.0015 -0.229763 -1.87316 0 8.99832e-13 1.0626e-12 0 2.00918e-20 5.97005e-27
10331 345 0.0015 -0.0672875 -1.8722 0 3.70284e-13 -1.25423e-12 0 0 1.34355e-27
1956 66 0.0015 0.0132378 -1.87349 0 4.69565e-13 -4.00244e-12 0 5.20104e-21 1.13292e-26
8045 269 0.0015 0.152704 -1.87369 0 6.77389e-13 -6.7039e-12 0 7.37441e-21 4.94154e-26
10202 341 0.0015 0.289307 -1.87202 0 -7.64614e-14 1.50439e-12 0 0 2.93141e-27
4531 152 0.0015 0.366216 -1.8733 0 6.53657e-14 -5.69804e-13 0 5.72705e-21 7.95781e-28
10268 343 0.0015 0.422731 -1.8732 0 -1.92877e-12 -1.05079e-11 0 0 8.68909e-26
3530 118 0.0015 0.66335 -1.87327 0 -3.88057e-12 -8.49499e-12 0 0 3.86962e-26
10301 344 0.0015 -0.490541 -1.87033 0 -5.29974e-12 3.43009e-12 0 0 1.66342e-26
10300 344 0.0015 -0.487717 -1.87124 0 3.18736e-12 -5.02988e-12 0 0 8.64762e-27
6084 203 0.0015 -0.429191 -1.8708 0 4.73804e-13 -9.24575e-12 0 4.96948e-20 4.11266e-26
6083 203 0.0015 -0.427374 -1.87166 0 -1.47876e-11 7.7662e-12 0 2.48474e-20 7.80522e-26
6035 202 0.0015 -0.332631 -1.87017 0 -1.2738e-12 1.92922e-12 0 0 1.06327e-26
7999 267 0.0015 -0.23674 -1.87052 0 -5.52464e-12 6.70854e-12 0 0 2.03978e-26
7998 267 0.0015 -0.234415 -1.8714 0 9.50504e-12 -2.78808e-12 0 0 3.87298e-26
1481 50 0.0015 0.579128 -1.8714 0 -1.32442e-12 -2.42276e-13 0 6.81478e-21 3.41689e-26
3529 118 0.0015 0.665887 -1.87136 0 -8.62441e-12 -1.24465e-12 0 0 8.27141e-26
2650 89 0.0015 -0.6044 -1.86922 0 2.29463e-12 -1.75209e-12 0 1.06521e-20 1.54988e-26
10303 344 0.0015 -0.49619 -1.86852 0 -5.09806e-12 4.06805e-13 0 0 1.15034e-26
10302 344 0.0015 -0.493366 -1.86943 0 6.88995e-12 -2.48772e-12 0 0 2.22135e-26
6087 203 0.0015 -0.434641 -1.86821 0 4.75749e-12 3.77384e-12 0 0 2.52956e-27
6085 203 0.0015 -0.431008 -1.86994 0 1.16269e-11 8.70547e-12 0 2.48474e-20 1.28171e-26
6086 203 0.0015 -0.432824 -1.86908 0 -7.20675e-12 -5.93249e-12 0 2.48474e-20 6.36735e-27
8001 267 0.0015 -0.241392 -1.86876 0 -5.48678e-12 9.76775e-12 0 1.00459e-20 3.54729e-26
8000 267 0.0015 -0.239066 -1.86964 0 8.42815e-12 -1.02164e-11 0 0 4.77631e-26
8012 268 0.0015 -0.171924 -1.86923 0 -3.54789e-13 -9.97866e-13 0 0 2.30373e-27
10332 345 0.0015 -0.0679644 -1.86909 0 1.15731e-12 -2.64993e-12 0 1.57149e-20 7.47571e-27
1957 66 0.0015 0.0127576 -1.86871 0 -3.15959e-13 1.97665e-12 0 0 3.57102e-27
10269 343 0.0015 0.423451 -1.86924 0 2.86219e-12 1.4718e-11 0 0 1.28074e-25
1482 50 0.0015 0.581354 -1.86848 0 4.09662e-12 3.76652e-12 0 6.81478e-21 2.20659e-26
3528 118 0.0015 0.668424 -1.86944 0 1.16641e-11 5.07963e-12 0 0 8.69349e-26
2651 89 0.0015 -0.608121 -1.86636 0 2.21652e-12 -8.42552e-13 0 5.32605e-21 4.34121e-27
10305 344 0.0015 -0.501838 -1.8667 0 -9.55605e-13 1.07662e-12 0 0 1.26297e-27
10304 344 0.0015 -0.499014 -1.86761 0 3.12749e-12 4.46069e-13 0 0 3.38042e-27
6089 203 0.0015 -0.438274 -1.86649 0 2.56544e-13 1.6915e-11 0 0 1.4796e-26
6088 203 0.0015 -0.436457 -1.86735 0 -4.83817e-12 -1.14114e-11 0 0 5.90588e-27
8004 267 0.0015 -0.248369 -1.86612 0 7.58915e-13 -1.88003e-12 0 1.00459e-20 3.10534e-27
8003 267 0.0015 -0.246044 -1.867 0 5.2287e-12 4.53489e-12 0 1.00459e-20 5.10664e-27
8002 267 0.0015 -0.243718 -1.86788 0 -3.79897e-12 -7.10763e-12 0 1.00459e-20 6.59303e-27
8046 269 0.0015 0.152008 -1.86695 0 -5.41547e-13 5.32984e-12 0 3.6872e-21 2.85636e-26
6004 201 0.0015 0.499982 -1.86721 0 6.03618e-13 2.15648e-12 0 1.19907e-20 2.10834e-26
3527 118 0.0015 0.670962 -1.86752 0 9.86577e-13 6.76841e-13 0 0 2.19031e-26
10307 344 0.0015 -0.507486 -1.86489 0 4.17046e-12 8.23406e-13 0 1.68424e-20 9.82935e-27
10306 344 0.0015 -0.504662 -1.8658 0 -4.17076e-12 -1.72941e-12 0 1.68424e-20 9.76667e-27
6090 203 0.0015 -0.440091 -1.86563 0 1.36758e-12 -7.55484e-12 0 0 1.11792e-26
8006 267 0.0015 -0.253021 -1.86436 0 1.87022e-12 -4.18693e-12 0 3.01377e-20 4.98334e-27
8005 267 0.0015 -0.250695 -1.86524 0 -4.33859e-12 1.62898e-12 0 2.00918e-20 7.53929e-27
10333 345 0.0015 -0.0686412 -1.86599 0 -1.61355e-12 4.84896e-12 0 1.57149e-20 1.16398e-26
10203 341 0.0015 0.288506 -1.8653 0 -8.34386e-14 -1.24008e-13 0 3.6872e-21 5.05574e-27
4532 152 0.0015 0.364868 -1.86469 0 6.61168e-15 3.04269e-13 0 5.72705e-21 9.76998e-28
10270 343 0.0015 0.424172 -1.86529 0 -2.0086e-12 -8.60285e-12 0 0 5.2605e-26
1483 50 0.0015 0.58358 -1.86557 0 -8.15226e-13 -4.32712e-14 0 6.81478e-21 1.00685e-27
3526 118 0.0015 0.673499 -1.86561 0 -7.12768e-12 -1.62967e-12 0 0 2.05954e-26
2652 89 0.0015 -0.611842 -1.86351 0 -3.159e-12 1.42534e-12 0 0 7.42514e-27
10310 344 0.0015 -0.515959 -1.86217 0 4.99815e-12 7.64525e-13 0 0 9.53721e-27
10309 344 0.0015 -0.513134 -1.86307 0 -8.18136e-12 -1.57208e-13 0 0 2.57171e-26
10308 344 0.0015 -0.51031 -1.86398 0 4.47751e-12 -3.99148e-13 0 1.68424e-20 1.79616e-26
6036 202 0.0015 -0.337434 -1.86244 0 2.34987e-12 -3.68852e-12 0 0 2.43029e-26
8008 267 0.0015 -0.257673 -1.8626 0 -3.89016e-12 -3.87404e-12 0 2.00918e-20 2.4929e-27
8007 267 0.0015 -0.255347 -1.86348 0 1.85735e-12 5.48164e-12 0 3.01377e-20 3.80478e-28
10334 345 0.0015 -0.0693181 -1.86288 0 1.13848e-12 -4.94023e-12 0 1.57149e-20 1.15787e-26
1958 66 0.0015 0.0122775 -1.86393 0 1.76668e-13 -8.52579e-13 0 0 5.01003e-28
1484 50 0.0015 0.585807 -1.86266 0 -9.08007e-13 -1.40305e-12 0 6.81478e-21 1.81908e-27
3525 118 0.0015 0.676036 -1.86369 0 7.12768e-12 1.62967e-12 0 0 2.05954e-26
2653 89 0.0015 -0.615563 -1.86065 0 2.55339e-12 -1.48325e-12 0 0 5.65426e-27
10312 344 0.0015 -0.521607 -1.86035 0 -8.24302e-12 3.54033e-12 0 0 3.33016e-26
10311 344 0.0015 -0.518783 -1.86126 0 2.93385e-12 -2.43688e-12 0 0 2.21785e-26
8010 267 0.0015 -0.262324 -1.86085 0 -3.80094e-12 5.27934e-13 0 0 9.67154e-27
8009 267 0.0015 -0.259998 -1.86172 0 6.24897e-12 7.03626e-13 0 1.00459e-20 1.2046e-26
8047 269 0.0015 0.151313 -1.86021 0 6.31641e-13 -6.45309e-12 0 0 3.95815e-26
10271 343 0.0015 0.424893 -1.86133 0 1.43519e-12 3.20811e-12 0 0 7.5542e-27
3524 118 0.0015 0.678573 -1.86178 0 -9.86577e-13 -6.76841e-13 0 0 2.19031e-26
10314 344 0.0015 -0.527255 -1.85854 0 5.91227e-12 -2.24298e-12 0 1.68424e-20 1.69409e-26
10313 344 0.0015 -0.524431 -1.85944 0 1.55813e-13 -2.7814e-13 0 0 2.42104e-26
10335 345 0.0015 -0.0699949 -1.85978 0 -2.37548e-12 9.30581e-12 0 0 4.70704e-26
1959 66 0.0015 0.0117974 -1.85915 0 3.98396e-14 -7.73729e-13 0 5.20104e-21 2.26784e-27
4771 160 0.0015 0.0785585 -1.85825 0 6.582e-14 -2.30552e-12 0 0 1.35966e-26
10204 341 0.0015 0.287705 -1.85857 0 6.34939e-13 -4.8347e-12 0 3.6872e-21 2.90976e-26
6005 201 0.0015 0.502997 -1.85945 0 -1.51408e-12 -4.28651e-12 0 1.19907e-20 2.59278e-26
1485 50 0.0015 0.588033 -1.85975 0 5.5657e-12 6.97928e-12 0 0 6.11841e-26
3523 118 0.0015 0.681111 -1.85986 0 -1.16641e-11 -5.07963e-12 0 0 8.69349e-26
2654 89 0.0015 -0.619284 -1.8578 0 1.18939e-12 -9.34924e-13 0 0 1.25509e-26
10316 344 0.0015 -0.532903 -1.85672 0 -8.0353e-12 3.07108e-12 0 1.68424e-20 3.71776e-26
10315 344 0.0015 -0.530079 -1.85763 0 -2.99292e-13 1.61365e-13 0 1.68424e-20 9.80434e-27
8013 268 0.0015 -0.167482 -1.85688 0 2.1554e-13 5.91289e-13 0 0 7.2752e-28
10336 345 0.0015 -0.0706718 -1.85667 0 2.52098e-12 -6.64963e-12 0 0 3.9758e-26
4533 152 0.0015 0.36352 -1.85607 0 -2.68563e-14 -1.57878e-14 0 5.72705e-21 3.77931e-28
10272 343 0.0015 0.425614 -1.85738 0 -8.21728e-13 5.47529e-13 0 0 3.39937e-27
1486 50 0.0015 0.59026 -1.85684 0 -5.5657e-12 -6.97928e-12 0 0 6.11841e-26
3522 118 0.0015 0.683648 -1.85795 0 8.62441e-12 1.24465e-12 0 0 8.27141e-26
3521 118 0.0015 0.686185 -1.85603 0 3.88057e-12 8.49499e-12 0 0 3.86962e-26
2655 89 0.0015 -0.623004 -1.85494 0 -3.80169e-12 2.86113e-12 0 0 1.52452e-26
10318 344 0.0015 -0.538552 -1.85491 0 -2.32856e-12 -1.62041e-12 0 0 2.08249e-26
10317 344 0.0015 -0.535727 -1.85581 0 1.0231e-11 -2.91744e-12 0 0 4.82499e-26
6037 202 0.0015 -0.342237 -1.85471 0 -6.32175e-13 9.36955e-13 0 0 1.75844e-26
1960 66 0.0015 0.0113172 -1.85437 0 1.00077e-14 -1.28844e-13 0 5.20104e-21 4.43981e-27
3520 118 0.0015 0.688722 -1.85412 0 -4.27942e-12 -9.17253e-12 0 0 4.15541e-26
2656 89 0.0015 -0.626725 -1.85209 0 2.1451e-12 -2.23322e-12 0 0 6.54391e-27
10320 344 0.0015 -0.5442 -1.85309 0 6.49504e-12 -3.02431e-12 0 0 4.164e-26
10319 344 0.0015 -0.541376 -1.854 0 -8.46719e-12 5.34809e-12 0 0 4.71608e-26
10337 345 0.0015 -0.0713486 -1.85356 0 -5.98677e-14 -5.28357e-12 0 0 2.66371e-26
8048 269 0.0015 0.150617 -1.85348 0 -2.16174e-13 2.5341e-12 0 0 1.95337e-26
10273 343 0.0015 0.426335 -1.85342 0 -2.59342e-13 -5.01411e-12 0 0 1.64352e-26
1487 50 0.0015 0.592486 -1.85392 0 9.08007e-13 1.40305e-12 0 6.81478e-21 1.81908e-27
3519 118 0.0015 0.69126 -1.8522 0 1.75544e-12 6.58582e-12 0 0 1.27449e-26
10338 345 0.0015 -0.0720254 -1.85046 0 -1.5047e-12 1.04198e-11 0 1.57149e-20 4.87868e-26
10205 341 0.0015 0.286904 -1.85184 0 -1.04339e-12 8.37122e-12 0 3.6872e-21 6.76998e-26
6006 201 0.0015 0.506013 -1.85168 0 -1.6077e-13 -3.47379e-13 0 1.19907e-20 1.51781e-26
1488 50 0.0015 0.594712 -1.85101 0 8.15226e-13 4.32712e-14 0 6.81478e-21 1.00685e-27
3518 118 0.0015 0.693797 -1.85028 0 5.99525e-13 -2.35532e-12 0 1.57149e-20 9.80302e-27
2657 89 0.0015 -0.630446 -1.84923 0 -1.62635e-12 2.61149e-12 0 0 5.66993e-27
1961 66 0.0015 0.0108371 -1.84959 0 -9.47862e-13 9.74387e-12 0 1.04021e-20 9.74074e-26
4772 160 0.0015 0.0782973 -1.84905 0 -1.55583e-13 5.51783e-12 0 0 3.99912e-26
10274 343 0.0015 0.427056 -1.84946 0 1.52877e-12 1.13272e-11 0 0 8.30726e-26
1489 50 0.0015 0.596939 -1.8481 0 -4.09662e-12 -3.76652e-12 0 6.81478e-21 2.20659e-26
3517 118 0.0015 0.696334 -1.84837 0 -4.76763e-12 -3.36892e-12 0 1.57149e-20 1.70903e-26
2658 89 0.0015 -0.634167 -1.84638 0 2.29317e-12 -3.01572e-12 0 5.32605e-21 8.71494e-27
6038 202 0.0015 -0.34704 -1.84697 0 -1.14124e-12 1.88134e-12 0 0 6.18498e-27
10339 345 0.0015 -0.0727023 -1.84735 0 7.92825e-13 -4.4592e-12 0 1.57149e-20 2.24622e-26
8049 269 0.0015 0.149922 -1.84674 0 -2.05331e-13 1.73073e-12 0 0 3.09741e-27
6541 219 0.0015 0.213251 -1.84656 0 -8.28272e-14 1.20669e-12 0 3.51396e-21 2.88853e-27
4534 152 0.0015 0.362172 -1.84745 0 -1.69087e-13 9.65327e-13 0 0 1.36698e-27
3516 118 0.0015 0.698871 -1.84645 0 2.653e-12 2.82824e-12 0 1.57149e-20 1.41337e-26
8014 268 0.0015 -0.163039 -1.84452 0 4.81949e-17 3.62482e-14 0 0 6.80907e-28
10340 345 0.0015 -0.0733791 -1.84424 0 -1.14069e-13 -6.11e-13 0 1.57149e-20 2.20559e-28
1962 66 0.0015 0.010357 -1.84481 0 1.5101e-12 -1.52477e-11 0 1.04021e-20 1.58214e-25
10206 341 0.0015 0.286103 -1.84511 0 8.75159e-13 -7.20325e-12 0 0 5.35581e-26
10275 343 0.0015 0.427777 -1.84551 0 -2.53587e-12 -1.7272e-11 0 0 1.71704e-25
1490 50 0.0015 0.599165 -1.84519 0 1.32442e-12 2.42276e-13 0 6.81478e-21 3.41689e-26
3515 118 0.0015 0.701409 -1.84454 0 3.05971e-12 2.16088e-12 0 0 1.12735e-26
2659 89 0.0015 -0.637888 -1.84352 0 -4.41717e-13 1.17413e-12 0 5.32605e-21 5.57724e-27
6007 201 0.0015 0.509028 -1.84391 0 1.41132e-12 3.61092e-12 0 5.99535e-21 1.74091e-26
1491 50 0.0015 0.601391 -1.84228 0 3.93782e-12 6.257e-12 0 6.81478e-21 2.76225e-26
3514 118 0.0015 0.703946 -1.84262 0 -4.88847e-12 -4.12349e-12 0 0 1.82561e-26
2660 89 0.0015 -0.641609 -1.84066 0 -5.85075e-12 3.5862e-12 0 5.32605e-21 4.77179e-26
10341 345 0.0015 -0.074056 -1.84114 0 1.74355e-12 -6.23587e-12 0 0 3.78165e-26
1963 66 0.0015 0.00987681 -1.84004 0 -1.2753e-12 1.26263e-11 0 1.04021e-20 1.08209e-25
10276 343 0.0015 0.428498 -1.84155 0 2.53587e-12 1.7272e-11 0 0 1.71704e-25
3513 118 0.0015 0.706483 -1.84071 0 2.02383e-12 7.09455e-13 0 1.57149e-20 7.53972e-27
6039 202 0.0015 -0.351842 -1.83924 0 -4.36322e-13 6.65332e-13 0 0 1.05112e-26
10342 345 0.0015 -0.0747328 -1.83803 0 -2.34335e-12 8.97809e-12 0 0 4.43818e-26
4773 160 0.0015 0.0780361 -1.83985 0 1.15415e-13 -4.27302e-12 0 0 2.92719e-26
8050 269 0.0015 0.149226 -1.84 0 -8.15174e-14 9.79342e-13 0 0 1.07257e-26
6542 219 0.0015 0.21269 -1.83947 0 1.41101e-15 -5.25557e-13 0 1.05419e-20 3.81629e-27
10207 341 0.0015 0.285302 -1.83839 0 -6.32619e-14 7.327e-13 0 0 1.91867e-26
4535 152 0.0015 0.360823 -1.83883 0 2.38991e-13 -1.28173e-12 0 0 2.06698e-27
1492 50 0.0015 0.603618 -1.83936 0 -5.73297e-13 -1.70731e-12 0 6.81478e-21 1.91149e-26
3512 118 0.0015 0.70902 -1.83879 0 5.36896e-12 5.8063e-12 0 1.57149e-20 4.39096e-26
2661 89 0.0015 -0.64533 -1.83781 0 1.02469e-11 -6.83599e-12 0 5.32605e-21 9.84646e-26
10277 343 0.0015 0.429219 -1.8376 0 -1.52877e-12 -1.13272e-11 0 0 8.30726e-26
6008 201 0.0015 0.512043 -1.83614 0 -1.22726e-12 -2.93032e-12 0 0 1.20829e-26
1493 50 0.0015 0.605844 -1.83645 0 1.27879e-13 3.3211e-13 0 0 1.04724e-26
3511 118 0.0015 0.711558 -1.83688 0 -5.21895e-12 -4.71926e-12 0 1.57149e-20 4.33796e-26
2662 89 0.0015 -0.649051 -1.83495 0 -7.18179e-12 4.69414e-12 0 5.32605e-21 5.82941e-26
10343 345 0.0015 -0.0754097 -1.83493 0 5.00732e-13 -2.5765e-13 0 0 1.15286e-26
1964 66 0.0015 0.00939668 -1.83526 0 6.08741e-13 -5.99686e-12 0 5.20104e-21 4.50264e-26
2663 89 0.0015 -0.652772 -1.8321 0 2.26433e-12 -1.28357e-12 0 5.32605e-21 6.78205e-27
10171 340 0.0015 -0.234195 -1.83312 0 -3.9778e-13 5.44463e-13 0 0 9.87107e-28
8015 268 0.0015 -0.158597 -1.83216 0 -4.52017e-13 -1.30267e-12 0 0 4.45098e-27
8051 269 0.0015 0.14853 -1.83326 0 -7.44035e-15 -1.90273e-13 0 0 1.52706e-26
6543 219 0.0015 0.212128 -1.83239 0 2.0699e-13 -1.98545e-12 0 1.05419e-20 4.31729e-27
10278 343 0.0015 0.429939 -1.83364 0 2.59342e-13 5.01411e-12 0 0 1.64352e-26
1494 50 0.0015 0.60807 -1.83354 0 -5.39754e-12 -5.48147e-12 0 6.81478e-21 3.35639e-26
6040 202 0.0015 -0.356645 -1.83151 0 2.25352e-12 -3.55232e-12 0 0 2.28922e-26
10344 345 0.0015 -0.0760865 -1.83182 0 8.12588e-13 -6.43509e-12 0 0 1.97386e-26
1965 66 0.0015 0.00891654 -1.83048 0 5.38407e-13 -5.21202e-12 0 0 3.98712e-26
4774 160 0.0015 0.0777749 -1.83066 0 -1.47084e-14 7.73641e-13 0 0 3.08817e-27
10208 341 0.0015 0.284501 -1.83166 0 -4.8854e-13 3.8188e-12 0 0 1.39613e-26
4536 152 0.0015 0.359475 -1.83021 0 -3.28756e-13 1.81059e-12 0 0 4.57062e-27
1495 50 0.0015 0.610297 -1.83063 0 3.80124e-12 2.6146e-12 0 6.81478e-21 2.82178e-26
2664 89 0.0015 -0.656493 -1.82924 0 -4.53515e-12 3.37863e-12 0 0 3.72301e-26
10345 345 0.0015 -0.0767633 -1.82871 0 -4.21428e-13 5.27017e-12 0 0 1.59445e-26
10279 343 0.0015 0.43066 -1.82968 0 8.21728e-13 -5.47529e-13 0 0 3.39937e-27
6009 201 0.0015 0.515058 -1.82837 0 1.54595e-12 3.63403e-12 0 0 2.01925e-26
2665 89 0.0015 -0.660213 -1.82639 0 8.85503e-12 -6.91698e-12 0 0 8.24455e-26
10172 340 0.0015 -0.238704 -1.82673 0 5.45976e-13 -6.57411e-13 0 6.39056e-21 1.05571e-27
8052 269 0.0015 0.147835 -1.82652 0 5.84107e-13 -5.32327e-12 0 3.6872e-21 2.91558e-26
1496 50 0.0015 0.612523 -1.82772 0 2.4108e-12 4.48721e-12 0 1.36296e-20 1.87574e-26
10346 345 0.0015 -0.0774402 -1.82561 0 -1.51008e-13 -2.55414e-12 0 0 2.69194e-27
1966 66 0.0015 0.0084364 -1.8257 0 -4.9814e-13 4.64156e-12 0 0 4.06466e-26
6544 219 0.0015 0.211567 -1.8253 0 -3.09997e-13 3.58017e-12 0 7.02791e-21 1.36844e-26
10209 341 0.0015 0.2837 -1.82493 0 3.29139e-13 -2.61718e-12 0 0 8.23995e-27
10280 343 0.0015 0.431381 -1.82573 0 -1.43519e-12 -3.20811e-12 0 0 7.5542e-27
1497 50 0.0015 0.614749 -1.8248 0 -8.45893e-13 -1.30913e-12 0 1.36296e-20 2.52867e-26
2666 89 0.0015 -0.663934 -1.82353 0 -5.43312e-12 4.33329e-12 0 5.32605e-21 4.678e-26
6041 202 0.0015 -0.361448 -1.82377 0 -1.26071e-12 1.91413e-12 0 0 1.48935e-26
10347 345 0.0015 -0.078117 -1.8225 0 -5.3529e-13 4.45487e-12 0 0 1.02975e-26
2667 89 0.0015 -0.667655 -1.82068 0 -7.34952e-14 1.57384e-13 0 5.32605e-21 3.31692e-27
10173 340 0.0015 -0.243212 -1.82034 0 -9.05685e-14 -7.90854e-14 0 6.39056e-21 1.47096e-28
1967 66 0.0015 0.00795626 -1.82092 0 -3.2408e-13 3.71714e-12 0 0 1.2348e-26
4775 160 0.0015 0.0775136 -1.82146 0 -2.71779e-14 8.25555e-13 0 0 9.52721e-28
4537 152 0.0015 0.358127 -1.82159 0 7.04653e-13 -4.25216e-12 0 5.72705e-21 2.66412e-26
10281 343 0.0015 0.432102 -1.82177 0 2.0086e-12 8.60285e-12 0 0 5.2605e-26
6010 201 0.0015 0.518074 -1.8206 0 -1.59628e-12 -3.82492e-12 0 0 2.14535e-26
1498 50 0.0015 0.616976 -1.82189 0 -3.9685e-12 -5.27132e-12 0 1.36296e-20 2.29941e-26
8016 268 0.0015 -0.154154 -1.81981 0 3.33603e-13 9.7705e-13 0 0 4.07473e-27
10348 345 0.0015 -0.0787939 -1.81939 0 9.62871e-13 -3.70351e-12 0 0 9.16853e-27
8053 269 0.0015 0.147139 -1.81978 0 -3.61419e-13 3.04885e-12 0 3.6872e-21 2.24884e-26
6545 219 0.0015 0.211005 -1.81821 0 4.2083e-13 -5.5208e-12 0 0 3.1197e-26
10210 341 0.0015 0.282899 -1.8182 0 -3.30038e-13 2.80518e-12 0 0 9.70428e-27
1499 50 0.0015 0.619202 -1.81898 0 3.23694e-12 4.31374e-12 0 6.81478e-21 1.79445e-26
2668 89 0.0015 -0.671376 -1.81782 0 4.17839e-12 -3.88075e-12 0 5.32605e-21 2.79709e-26
6042 202 0.0015 -0.366251 -1.81604 0 -1.68591e-12 2.83731e-12 0 0 2.54191e-26
10349 345 0.0015 -0.0794707 -1.81629 0 7.56472e-13 -5.91543e-12 0 0 3.90219e-26
1968 66 0.0015 0.00747613 -1.81614 0 -3.77302e-13 3.09076e-12 0 0 6.03358e-26
10282 343 0.0015 0.432823 -1.81781 0 -2.86219e-12 -1.4718e-11 0 0 1.28074e-25
1500 50 0.0015 0.621428 -1.81607 0 -8.62267e-13 -1.17249e-12 0 0 2.15608e-27
2669 89 0.0015 -0.675097 -1.81497 0 -6.13307e-12 5.50061e-12 0 0 4.43054e-26
5941 199 0.0015 0.740778 -1.81551 0 -5.98914e-14 -2.21449e-13 0 0 1.40334e-28
2670 89 0.0015 -0.678818 -1.81211 0 2.82446e-12 -2.46197e-12 0 0 1.8219e-26
10174 340 0.0015 -0.24772 -1.81396 0 3.00721e-13 -3.02046e-13 0 6.39056e-21 8.8734e-28
10350 345 0.0015 -0.0801475 -1.81318 0 -1.15843e-12 6.51602e-12 0 0 3.86226e-26
4776 160 0.0015 0.0772524 -1.81226 0 2.03391e-14 -5.01871e-13 0 0 7.45204e-28
8054 269 0.0015 0.146443 -1.81304 0 -2.18009e-13 2.65263e-12 0 7.37441e-21 1.01536e-26
4538 152 0.0015 0.356779 -1.81297 0 -9.24724e-13 5.78302e-12 0 5.72705e-21 4.1665e-26
10283 343 0.0015 0.433544 -1.81386 0 1.92877e-12 1.05079e-11 0 0 8.68909e-26
6011 201 0.0015 0.521089 -1.81283 0 3.69771e-14 -7.24383e-14 0 5.99535e-21 1.06114e-26
1969 66 0.0015 0.00699599 -1.81136 0 1.20008e-12 -1.12795e-11 0 0 8.62089e-26
6546 219 0.0015 0.210443 -1.81113 0 -2.35228e-13 3.70814e-12 0 0 2.1323e-26
10211 341 0.0015 0.282098 -1.81148 0 4.01596e-13 -3.75386e-12 0 0 1.37231e-26
6043 202 0.0015 -0.371054 -1.8083 0 2.26987e-12 -3.74668e-12 0 0 2.90936e-26
10284 343 0.0015 0.434265 -1.8099 0 5.97874e-14 -1.05153e-12 0 1.24237e-20 6.38501e-27
10175 340 0.0015 -0.252228 -1.80757 0 -1.57099e-13 2.33533e-13 0 0 1.04378e-27
8017 268 0.0015 -0.149712 -1.80745 0 4.69739e-13 1.23906e-12 0 0 6.17142e-27
1970 66 0.0015 0.00651585 -1.80658 0 -4.62408e-13 3.81924e-12 0 0 4.01726e-26
8055 269 0.0015 0.145748 -1.8063 0 5.31245e-13 -5.67588e-12 0 7.37441e-21 3.17419e-26
5942 199 0.0015 0.743061 -1.80618 0 1.90364e-13 5.88773e-13 0 0 5.41618e-28
6547 219 0.0015 0.209882 -1.80404 0 -7.95444e-14 2.45394e-13 0 0 1.42347e-27
10212 341 0.0015 0.281297 -1.80475 0 -5.21898e-13 5.07478e-12 0 0 2.78924e-26
4539 152 0.0015 0.35543 -1.80435 0 4.49191e-13 -2.87573e-12 0 5.72705e-21 1.87405e-26