ITEM: TIMESTEP
86000
ITEM: NUMBER OF ATOMS
10500
ITEM: BOX BOUNDS pp pp pp
-1.0249999999999999e+00 1.0249999999999999e+00
-2.0000000000000000e+00 2.0000000000000000e+00
-5.0000000000000003e-02 5.0000000000000003e-02
ITEM: ATOMS id type radius x y z fx fy fz c_bendingE c_stretchingE
10321 345 0.0015 -0.0605191 -1.90326 0 1.60572e-12 -8.43894e-12 0 0 6.51216e-26
6031 202 0.0015 -0.31342 -1.90111 0 -2.85182e-13 4.91505e-13 0 0 8.15841e-28
10322 345 0.0015 -0.061196 -1.90016 0 -2.27952e-12 1.32387e-11 0 0 8.57505e-26
8041 269 0.0015 0.155487 -1.90065 0 1.81101e-13 -1.89714e-12 0 0 6.83449e-27
10261 343 0.0015 0.417684 -1.90089 0 -8.33045e-13 -3.55994e-12 0 1.24237e-20 1.48948e-26
1471 50 0.0015 0.556864 -1.90052 0 -3.13432e-12 -3.10665e-12 0 0 1.94597e-26
10323 345 0.0015 -0.0618728 -1.89705 0 2.11935e-12 -1.2694e-11 0 0 7.7444e-26
1951 66 0.0015 0.0156385 -1.89738 0 -1.42285e-13 1.13047e-12 0 0 1.73089e-27
10262 343 0.0015 0.418405 -1.89694 0 1.85437e-12 7.57472e-12 0 2.48474e-20 3.39741e-26
1472 50 0.0015 0.559091 -1.8976 0 -1.32738e-12 -4.74105e-12 0 0 1.00917e-25
2641 89 0.0015 -0.570912 -1.89491 0 5.79443e-13 -1.61593e-13 0 0 4.05754e-28
1473 50 0.0015 0.561317 -1.89469 0 3.81881e-12 8.61145e-12 0 0 8.15049e-26
2642 89 0.0015 -0.574633 -1.89206 0 -1.68383e-12 7.5209e-13 0 0 2.39492e-27
6032 202 0.0015 -0.318223 -1.89337 0 3.81953e-13 -6.98488e-13 0 0 9.46021e-28
10324 345 0.0015 -0.0625496 -1.89394 0 -2.83882e-12 1.52467e-11 0 0 1.06232e-25
1952 66 0.0015 0.0151583 -1.8926 0 1.07065e-13 -7.79458e-14 0 0 3.20393e-27
8042 269 0.0015 0.154791 -1.89391 0 -5.00851e-13 5.2511e-12 0 0 2.8195e-26
10263 343 0.0015 0.419126 -1.89298 0 -1.4145e-12 -5.44494e-12 0 2.48474e-20 2.15177e-26
3540 118 0.0015 0.637977 -1.89243 0 -2.74769e-12 -2.98088e-12 0 0 1.4052e-26
6061 203 0.0015 -0.387409 -1.89062 0 1.76561e-12 1.4408e-12 0 0 5.33769e-28
10325 345 0.0015 -0.0632265 -1.89084 0 1.63091e-12 -8.51612e-12 0 0 5.06622e-26
10231 342 0.0015 0.215 -1.89 0 -7.30647e-13 0 0 0 1.02269e-28
10232 342 0.0015 0.21569 -1.89 0 3.29589e-12 0 0 0 1.36312e-27
10233 342 0.0015 0.216379 -1.89 0 -6.01247e-12 0 0 0 3.53735e-27
10234 342 0.0015 0.217069 -1.89 0 5.39738e-12 0 0 0 3.00473e-27
10235 342 0.0015 0.217759 -1.89 0 -2.28237e-12 0 0 0 7.49375e-28
10236 342 0.0015 0.218448 -1.89 0 2.39059e-12 0 0 0 8.3281e-28
10237 342 0.0015 0.219138 -1.89 0 -4.60052e-12 0 0 0 2.04926e-27
10238 342 0.0015 0.219828 -1.89 0 5.65048e-12 0 0 0 3.08903e-27
10239 342 0.0015 0.220517 -1.89 0 -3.18745e-12 0 0 0 1.85263e-27
10240 342 0.0015 0.221207 -1.89 0 6.89088e-13 0 0 0 7.23597e-29
10241 342 0.0015 0.221897 -1.89 0 -4.31075e-12 0 0 0 2.69487e-27
10242 342 0.0015 0.222586 -1.89 0 7.64308e-12 0 0 0 5.60039e-27
10243 342 0.0015 0.223276 -1.89 0 -5.32494e-12 0 0 0 3.3429e-27
10244 342 0.0015 0.223966 -1.89 0 2.28237e-12 0 0 0 5.21148e-28
10245 342 0.0015 0.224655 -1.89 0 -2.82569e-12 0 0 0 8.65514e-28
10246 342 0.0015 0.225345 -1.89 0 2.82569e-12 0 0 0 8.65514e-28
10247 342 0.0015 0.226034 -1.89 0 -2.28237e-12 0 0 0 5.21148e-28
10248 342 0.0015 0.226724 -1.89 0 5.32494e-12 0 0 0 3.3429e-27
10249 342 0.0015 0.227414 -1.89 0 -7.64308e-12 0 0 0 5.60039e-27
10250 342 0.0015 0.228103 -1.89 0 4.31075e-12 0 0 0 2.69487e-27
10251 342 0.0015 0.228793 -1.89 0 -6.89088e-13 0 0 0 7.23597e-29
10252 342 0.0015 0.229483 -1.89 0 3.18745e-12 0 0 0 1.85263e-27
10253 342 0.0015 0.230172 -1.89 0 -5.65048e-12 0 0 0 3.08903e-27
10254 342 0.0015 0.230862 -1.89 0 4.60052e-12 0 0 0 2.04926e-27
10255 342 0.0015 0.231552 -1.89 0 -2.39059e-12 0 0 0 8.3281e-28
10256 342 0.0015 0.232241 -1.89 0 2.28237e-12 0 0 0 7.49375e-28
10257 342 0.0015 0.232931 -1.89 0 -5.39738e-12 0 0 0 3.00473e-27
10258 342 0.0015 0.233621 -1.89 0 6.01247e-12 0 0 0 3.53735e-27
10259 342 0.0015 0.23431 -1.89 0 -3.29589e-12 0 0 0 1.36312e-27
10260 342 0.0015 0.235 -1.89 0 7.30647e-13 0 0 0 1.02269e-28
6001 201 0.0015 0.490936 -1.89052 0 1.14752e-12 2.87165e-12 0 0 2.21343e-26
1474 50 0.0015 0.563543 -1.89178 0 5.86444e-12 5.19178e-12 0 0 6.36359e-26
3539 118 0.0015 0.640514 -1.89051 0 6.53718e-12 8.00113e-12 0 1.57149e-20 4.63676e-26
2643 89 0.0015 -0.578354 -1.8892 0 1.15445e-12 -7.60386e-13 0 0 2.01586e-27
6063 203 0.0015 -0.391043 -1.8889 0 -2.9031e-12 5.5996e-12 0 0 7.78858e-27
6064 203 0.0015 -0.392859 -1.88804 0 3.25192e-12 -1.07919e-11 0 0 2.08366e-26
6062 203 0.0015 -0.389226 -1.88976 0 3.54815e-13 -4.73287e-12 0 0 6.71538e-27
10264 343 0.0015 0.419847 -1.88903 0 -3.40093e-13 -2.44986e-12 0 1.24237e-20 1.98547e-26
1475 50 0.0015 0.56577 -1.88887 0 -5.73878e-12 -6.32074e-12 0 0 6.39601e-26
3538 118 0.0015 0.643052 -1.8886 0 -4.68042e-12 -8.33087e-12 0 3.14298e-20 3.8781e-26
2644 89 0.0015 -0.582074 -1.88635 0 -1.59727e-12 1.40676e-12 0 5.32605e-21 5.13664e-27
6066 203 0.0015 -0.396492 -1.88631 0 9.27741e-12 -1.31144e-11 0 0 6.0926e-26
6065 203 0.0015 -0.394676 -1.88717 0 -7.71618e-12 1.92406e-11 0 0 6.80671e-26
7981 267 0.0015 -0.194876 -1.88635 0 -2.42104e-12 -3.16673e-13 0 1.00459e-20 3.20025e-27
10326 345 0.0015 -0.0639033 -1.88773 0 -1.23378e-12 4.83771e-12 0 0 1.40101e-26
1953 66 0.0015 0.0146782 -1.88782 0 -1.01718e-13 -3.85274e-13 0 5.20104e-21 2.0856e-27
8043 269 0.0015 0.154095 -1.88717 0 3.46056e-13 -3.8849e-12 0 0 2.18909e-26
3537 118 0.0015 0.645589 -1.88668 0 -7.61659e-13 4.44635e-12 0 3.14298e-20 6.82105e-27
6068 203 0.0015 -0.400126 -1.88459 0 -5.11065e-12 6.7853e-12 0 0 1.67914e-26
6067 203 0.0015 -0.398309 -1.88545 0 -3.14026e-12 -2.36517e-12 0 0 1.65582e-26
6033 202 0.0015 -0.323025 -1.88564 0 -9.45342e-13 1.62023e-12 0 0 7.00026e-27
7983 267 0.0015 -0.199527 -1.8846 0 -6.05537e-12 -5.4054e-12 0 1.00459e-20 9.26849e-27
7982 267 0.0015 -0.197202 -1.88548 0 6.99334e-12 2.05402e-12 0 1.00459e-20 1.24632e-26
10327 345 0.0015 -0.0645802 -1.88463 0 1.42201e-12 -4.11263e-12 0 0 1.30027e-26
10265 343 0.0015 0.420568 -1.88507 0 1.51455e-12 7.84105e-12 0 0 3.56205e-26
1476 50 0.0015 0.567996 -1.88596 0 -6.86397e-13 -7.90113e-13 0 0 3.14005e-27
3536 118 0.0015 0.648126 -1.88476 0 5.16354e-14 -3.65092e-12 0 1.57149e-20 7.24555e-27
2645 89 0.0015 -0.585795 -1.88349 0 6.04256e-12 -4.56103e-12 0 5.32605e-21 4.58209e-26
6071 203 0.0015 -0.405575 -1.882 0 5.98267e-12 -7.71892e-12 0 0 2.97348e-26
6070 203 0.0015 -0.403759 -1.88287 0 -5.69335e-13 -2.00055e-12 0 0 3.51327e-27
6069 203 0.0015 -0.401942 -1.88373 0 3.55912e-12 1.06235e-12 0 0 1.44166e-26
7985 267 0.0015 -0.204179 -1.88284 0 2.25106e-13 -6.03971e-12 0 0 5.61844e-27
7984 267 0.0015 -0.201853 -1.88372 0 1.89346e-14 7.75049e-12 0 0 5.47366e-27
1954 66 0.0015 0.0141981 -1.88304 0 4.3803e-13 -3.44711e-12 0 5.20104e-21 1.10427e-26
6002 201 0.0015 0.493952 -1.88275 0 -1.32459e-12 -3.09735e-12 0 0 2.23087e-26
1477 50 0.0015 0.570222 -1.88304 0 3.66446e-12 3.12209e-12 0 6.81478e-21 1.22841e-26
3535 118 0.0015 0.650663 -1.88285 0 4.73426e-12 5.13877e-12 0 0 2.16008e-26
2646 89 0.0015 -0.589516 -1.88064 0 -6.28077e-12 4.59457e-12 0 5.32605e-21 4.69585e-26
6073 203 0.0015 -0.409209 -1.88028 0 -3.78947e-12 -4.61392e-12 0 0 3.25335e-27
6072 203 0.0015 -0.407392 -1.88114 0 -3.55367e-12 1.10408e-11 0 0 2.86947e-26
7988 267 0.0015 -0.211156 -1.8802 0 4.40589e-14 4.45617e-12 0 1.00459e-20 1.13406e-27
7987 267 0.0015 -0.208831 -1.88108 0 -3.41897e-12 -2.79338e-12 0 1.00459e-20 4.35953e-27
7986 267 0.0015 -0.206505 -1.88196 0 4.16632e-12 2.64155e-12 0 1.00459e-20 4.45329e-27
8011 268 0.0015 -0.176367 -1.88159 0 -9.6811e-14 -2.58838e-13 0 5.70726e-21 2.78503e-28
10328 345 0.0015 -0.065257 -1.88152 0 1.81571e-13 -3.54486e-12 0 1.57149e-20 1.45193e-26
8044 269 0.0015 0.1534 -1.88043 0 2.15129e-13 -1.51473e-12 0 0 8.51355e-27
10266 343 0.0015 0.421289 -1.88111 0 -1.25486e-12 -6.52116e-12 0 0 2.5776e-26
1478 50 0.0015 0.572449 -1.88013 0 -5.41912e-12 -4.33893e-12 0 6.81478e-21 2.33143e-26
3534 118 0.0015 0.653201 -1.88093 0 -6.53364e-12 -4.65465e-12 0 1.57149e-20 2.84028e-26
10292 344 0.0015 -0.465124 -1.8785 0 -1.30231e-11 3.32852e-12 0 0 7.98516e-26
10291 344 0.0015 -0.4623 -1.87941 0 4.75831e-12 -1.0479e-12 0 0 1.9388e-26
6074 203 0.0015 -0.411025 -1.87942 0 3.45135e-12 -3.8895e-12 0 0 6.41236e-27
6075 203 0.0015 -0.412842 -1.87856 0 -6.91746e-12 1.34335e-11 0 0 5.38516e-26
7990 267 0.0015 -0.215808 -1.87844 0 -1.58837e-12 5.02035e-12 0 1.00459e-20 4.8873e-27
7989 267 0.0015 -0.213482 -1.87932 0 2.33768e-12 -4.60897e-12 0 1.00459e-20 5.63248e-27
10329 345 0.0015 -0.0659339 -1.87841 0 -1.08678e-12 6.60739e-12 0 1.57149e-20 2.05574e-26
1955 66 0.0015 0.0137179 -1.87827 0 -6.55568e-13 6.47125e-12 0 2.08041e-20 2.87769e-26
10201 341 0.0015 0.290108 -1.87875 0 2.23402e-13 -1.91729e-12 0 3.6872e-21 7.01166e-27
3533 118 0.0015 0.655738 -1.87902 0 4.25156e-12 1.35164e-12 0 1.57149e-20 1.37563e-26
2647 89 0.0015 -0.593237 -1.87778 0 2.87996e-14 3.61471e-14 0 0 1.24903e-26
10294 344 0.0015 -0.470773 -1.87669 0 -1.0342e-11 3.58991e-12 0 0 5.51396e-26
10293 344 0.0015 -0.467948 -1.87759 0 1.51486e-11 -4.87288e-12 0 0 1.04939e-25
6077 203 0.0015 -0.416475 -1.87683 0 -8.01911e-12 1.96808e-11 0 0 7.82385e-26
6076 203 0.0015 -0.414658 -1.87769 0 1.26886e-11 -2.05182e-11 0 0 1.15068e-25
6034 202 0.0015 -0.327828 -1.87791 0 2.19031e-12 -3.65295e-12 0 0 2.41034e-26
7992 267 0.0015 -0.22046 -1.87668 0 1.11414e-11 3.58555e-12 0 0 3.15502e-26
7991 267 0.0015 -0.218134 -1.87756 0 -7.28368e-12 -4.39039e-12 0 1.00459e-20 2.48126e-26
10267 343 0.0015 0.42201 -1.87716 0 1.35962e-12 7.09857e-12 0 0 3.14531e-26
1479 50 0.0015 0.574675 -1.87722 0 7.07498e-12 6.79767e-12 0 6.81478e-21 5.06507e-26
3532 118 0.0015 0.658275 -1.8771 0 1.93766e-12 4.32464e-12 0 1.57149e-20 1.73337e-26
2648 89 0.0015 -0.596958 -1.87493 0 2.29144e-12 -1.49129e-12 0 0 6.61816e-27
10296 344 0.0015 -0.476421 -1.87487 0 -9.70126e-12 2.38229e-12 0 0 4.11529e-26
10295 344 0.0015 -0.473597 -1.87578 0 8.08841e-12 -1.62086e-12 0 0 2.80914e-26
6080 203 0.0015 -0.421925 -1.87425 0 -8.04498e-12 -1.91756e-11 0 0 2.68162e-27
6079 203 0.0015 -0.420108 -1.87511 0 2.6615e-12 1.95385e-11 0 0 1.1151e-26
6078 203 0.0015 -0.418291 -1.87597 0 1.72439e-12 -1.72076e-11 0 0 2.25115e-26
7995 267 0.0015 -0.227437 -1.87404 0 4.50686e-12 -1.27342e-11 0 0 2.65456e-26
7994 267 0.0015 -0.225111 -1.87492 0 -4.82627e-12 1.10373e-11 0 0 2.49811e-26
7993 267 0.0015 -0.222785 -1.8758 0 -1.95675e-12 -6.3207e-12 0 0 1.60468e-26
10330 345 0.0015 -0.0666107 -1.87531 0 1.88402e-12 -9.52773e-12 0 1.57149e-20 5.01007e-26
6003 201 0.0015 0.496967 -1.87498 0 7.82477e-13 1.56292e-12 0 0 5.14696e-27
1480 50 0.0015 0.576901 -1.87431 0 -6.89604e-12 -7.76723e-12 0 0 5.60558e-26
3531 118 0.0015 0.660812 -1.87519 0 -2.83884e-12 -4.54242e-12 0 0 1.75669e-26
2649 89 0.0015 -0.600679 -1.87207 0 6.67158e-13 -8.75438e-13 0 0 3.70634e-27
10299 344 0.0015 -0.484893 -1.87215 0 3.59702e-12 -5.70033e-12 0 3.36849e-20 1.10524e-26
10298 344 0.0015 -0.482069 -1.87306 0 -3.59496e-12 5.99843e-12 0 3.36849e-20 1.14638e-26
10297 344 0.0015 -0.479245 -1.87396 0 7.18002e-12 -4.4884e-12 0 1.68424e-20 3.03849e-26
6082 203 0.0015 -0.425558 -1.87252 0 9.37031e-12 -7.12644e-12 0 0 3.94973e-26
6081 203 0.0015 -0.423741 -1.87338 0 2.11332e-12 1.21186e-11 0 0 1.0809e-26
7997 267 0.0015 -0.232089 -1.87228 0 1.39013e-11 -3.52515e-12 0 0 7.28937e-26
7996 267 0.0015 -0.229763 -1.87316 0 -6.91713e-12 8.89224e-12 0 0 3.3053e-26
10331 345 0.0015 -0.0672875 -1.8722 0 -3.95673e-12 1.91955e-11 0 1.57149e-20 1.82987e-25
1956 66 0.0015 0.0132378 -1.87349 0 5.22401e-13 -5.3799e-12 0 1.56031e-20 2.21881e-26
8045 269 0.0015 0.152704 -1.87369 0 -3.49304e-13 2.97085e-12 0 3.6872e-21 9.61567e-27
10202 341 0.0015 0.289307 -1.87202 0 -1.42993e-13 1.23375e-12 0 3.6872e-21 7.90306e-27
4531 152 0.0015 0.366216 -1.8733 0 2.84023e-13 -1.7607e-12 0 0 7.70736e-27
10268 343 0.0015 0.422731 -1.8732 0 -1.25863e-12 -6.00607e-12 0 0 2.64305e-26
3530 118 0.0015 0.66335 -1.87327 0 -3.59115e-12 -2.22414e-12 0 1.57149e-20 2.05312e-26
10301 344 0.0015 -0.490541 -1.87033 0 -5.62405e-12 4.35798e-12 0 1.68424e-20 3.09494e-26
10300 344 0.0015 -0.487717 -1.87124 0 -1.66925e-12 1.88715e-12 0 1.68424e-20 6.53172e-27
6084 203 0.0015 -0.429191 -1.8708 0 -1.83035e-12 -1.06004e-11 0 2.48474e-20 6.51242e-27
6083 203 0.0015 -0.427374 -1.87166 0 -7.74272e-12 8.44608e-12 0 2.48474e-20 3.56245e-26
6035 202 0.0015 -0.332631 -1.87017 0 -1.38211e-12 2.37431e-12 0 0 1.72798e-26
7999 267 0.0015 -0.23674 -1.87052 0 5.33782e-12 2.0328e-12 0 0 8.63144e-27
7998 267 0.0015 -0.234415 -1.8714 0 -1.3036e-11 -6.18224e-13 0 0 5.85265e-26
1481 50 0.0015 0.579128 -1.8714 0 3.25018e-12 3.79054e-12 0 0 1.96239e-26
3529 118 0.0015 0.665887 -1.87136 0 3.15707e-12 4.4447e-12 0 1.57149e-20 2.03828e-26
2650 89 0.0015 -0.6044 -1.86922 0 -1.72938e-12 1.3232e-12 0 0 3.76704e-27
10303 344 0.0015 -0.49619 -1.86852 0 3.04284e-12 3.25034e-12 0 1.68424e-20 8.05668e-27
10302 344 0.0015 -0.493366 -1.86943 0 5.45133e-12 -6.39135e-12 0 1.68424e-20 3.15645e-26
6087 203 0.0015 -0.434641 -1.86821 0 -1.63226e-11 7.59127e-12 0 4.96948e-20 1.10929e-25
6085 203 0.0015 -0.431008 -1.86994 0 2.64745e-12 1.29175e-11 0 4.96948e-20 7.51166e-27
6086 203 0.0015 -0.432824 -1.86908 0 1.12567e-11 -1.57296e-11 0 4.96948e-20 1.05848e-25
8001 267 0.0015 -0.241392 -1.86876 0 1.17398e-11 -4.27632e-12 0 0 5.4512e-26
8000 267 0.0015 -0.239066 -1.86964 0 -6.36421e-12 1.33327e-12 0 0 2.20289e-26
8012 268 0.0015 -0.171924 -1.86923 0 -1.06519e-13 -3.21939e-13 0 5.70726e-21 1.65945e-27
10332 345 0.0015 -0.0679644 -1.86909 0 3.92851e-12 -1.90781e-11 0 3.14298e-20 1.81497e-25
1957 66 0.0015 0.0127576 -1.86871 0 -6.30758e-13 6.22466e-12 0 1.56031e-20 3.1579e-26
10269 343 0.0015 0.423451 -1.86924 0 5.05571e-13 1.37671e-12 0 0 2.55395e-27
1482 50 0.0015 0.581354 -1.86848 0 -1.89303e-12 -1.7142e-12 0 0 3.97734e-27
3528 118 0.0015 0.668424 -1.86944 0 3.82178e-13 -3.72261e-12 0 3.14298e-20 2.20814e-27
2651 89 0.0015 -0.608121 -1.86636 0 3.54547e-12 -2.42432e-12 0 5.32605e-21 1.83691e-26
10305 344 0.0015 -0.501838 -1.8667 0 -2.76169e-12 -3.5673e-13 0 1.68424e-20 2.61758e-27
10304 344 0.0015 -0.499014 -1.86761 0 -2.14357e-12 -1.23274e-12 0 0 8.51508e-27
6089 203 0.0015 -0.438274 -1.86649 0 -1.9001e-12 2.40705e-13 0 0 1.57984e-26
6088 203 0.0015 -0.436457 -1.86735 0 3.77464e-12 3.32759e-12 0 2.48474e-20 1.66487e-26
8004 267 0.0015 -0.248369 -1.86612 0 -3.04626e-12 -3.2839e-14 0 0 5.21815e-27
8003 267 0.0015 -0.246044 -1.867 0 2.13481e-12 2.37368e-13 0 0 2.29922e-27
8002 267 0.0015 -0.243718 -1.86788 0 -8.4552e-12 2.32558e-12 0 0 3.52637e-26
8046 269 0.0015 0.152008 -1.86695 0 -1.82816e-13 1.83661e-12 0 3.6872e-21 1.61454e-26
6004 201 0.0015 0.499982 -1.86721 0 -8.70309e-14 9.3268e-14 0 0 1.03286e-26
3527 118 0.0015 0.670962 -1.86752 0 -1.25967e-12 3.27823e-12 0 1.57149e-20 2.33294e-27
10307 344 0.0015 -0.507486 -1.86489 0 1.37977e-11 -6.28179e-12 0 1.68424e-20 9.51157e-26
10306 344 0.0015 -0.504662 -1.8658 0 -4.14315e-12 4.35409e-12 0 1.68424e-20 3.62127e-26
6090 203 0.0015 -0.440091 -1.86563 0 3.68012e-12 -2.87883e-12 0 0 1.16081e-26
8006 267 0.0015 -0.253021 -1.86436 0 1.4175e-12 3.49189e-12 0 0 8.12132e-29
8005 267 0.0015 -0.250695 -1.86524 0 3.01158e-12 -3.4815e-13 0 0 5.23819e-27
10333 345 0.0015 -0.0686412 -1.86599 0 -1.5365e-12 7.28296e-12 0 3.14298e-20 4.25725e-26
10203 341 0.0015 0.288506 -1.8653 0 -2.02801e-13 1.72816e-12 0 3.6872e-21 2.9732e-27
4532 152 0.0015 0.364868 -1.86469 0 -2.83421e-13 1.73489e-12 0 0 7.70895e-27
10270 343 0.0015 0.424172 -1.86529 0 -7.46181e-13 -1.55032e-12 0 0 3.32703e-27
1483 50 0.0015 0.58358 -1.86557 0 2.39501e-12 1.58173e-12 0 0 4.27915e-27
3526 118 0.0015 0.673499 -1.86561 0 9.59962e-12 3.85127e-12 0 1.57149e-20 7.87182e-26
2652 89 0.0015 -0.611842 -1.86351 0 -6.95425e-12 5.16183e-12 0 5.32605e-21 4.98477e-26
10310 344 0.0015 -0.515959 -1.86217 0 4.78389e-12 -7.08178e-12 0 0 2.07132e-26
10309 344 0.0015 -0.513134 -1.86307 0 -4.66426e-12 5.4053e-12 0 0 1.8733e-26
10308 344 0.0015 -0.51031 -1.86398 0 -6.90476e-12 1.20026e-12 0 0 6.22829e-26
6036 202 0.0015 -0.337434 -1.86244 0 -1.55193e-13 1.71117e-13 0 0 3.79544e-28
8008 267 0.0015 -0.257673 -1.8626 0 2.4249e-12 1.00131e-11 0 1.00459e-20 2.96943e-27
8007 267 0.0015 -0.255347 -1.86348 0 -1.99229e-12 -9.9999e-12 0 0 2.70231e-27
10334 345 0.0015 -0.0693181 -1.86288 0 1.07137e-12 -3.16532e-12 0 1.57149e-20 7.16931e-27
1958 66 0.0015 0.0122775 -1.86393 0 8.88534e-13 -8.90058e-12 0 5.20104e-21 5.33922e-26
1484 50 0.0015 0.585807 -1.86266 0 -1.23785e-12 -3.73181e-14 0 0 7.25897e-28
3525 118 0.0015 0.676036 -1.86369 0 -9.59962e-12 -3.85127e-12 0 1.57149e-20 7.87182e-26
2653 89 0.0015 -0.615563 -1.86065 0 6.55718e-12 -5.00971e-12 0 5.32605e-21 4.61237e-26
10312 344 0.0015 -0.521607 -1.86035 0 -4.43266e-12 8.87883e-13 0 1.68424e-20 1.36134e-26
10311 344 0.0015 -0.518783 -1.86126 0 -5.20114e-13 4.19457e-12 0 1.68424e-20 4.26876e-27
8010 267 0.0015 -0.262324 -1.86085 0 3.19853e-12 -2.12334e-13 0 1.00459e-20 6.4965e-27
8009 267 0.0015 -0.259998 -1.86172 0 -5.23844e-12 -3.24931e-12 0 1.00459e-20 6.81913e-27
8047 269 0.0015 0.151313 -1.86021 0 5.60247e-13 -5.30683e-12 0 3.6872e-21 2.68391e-26
10271 343 0.0015 0.424893 -1.86133 0 1.73108e-12 5.1374e-12 0 0 1.81222e-26
3524 118 0.0015 0.678573 -1.86178 0 1.25967e-12 -3.27823e-12 0 1.57149e-20 2.33294e-27
10314 344 0.0015 -0.527255 -1.85854 0 2.67467e-12 1.83703e-12 0 0 3.71123e-27
10313 344 0.0015 -0.524431 -1.85944 0 3.48263e-12 -2.80238e-12 0 1.68424e-20 1.34595e-26
10335 345 0.0015 -0.0699949 -1.85978 0 -8.30041e-13 1.66888e-12 0 0 7.80405e-27
1959 66 0.0015 0.0117974 -1.85915 0 -4.59175e-13 5.00368e-12 0 5.20104e-21 2.62e-26
4771 160 0.0015 0.0785585 -1.85825 0 -2.72352e-14 9.5576e-13 0 0 2.33662e-27
10204 341 0.0015 0.287705 -1.85857 0 -9.11237e-14 1.09779e-12 0 0 1.08022e-26
6005 201 0.0015 0.502997 -1.85945 0 -2.1602e-12 -5.7249e-12 0 0 5.4283e-26
1485 50 0.0015 0.588033 -1.85975 0 1.81177e-12 1.50543e-12 0 0 5.66067e-27
3523 118 0.0015 0.681111 -1.85986 0 -3.82178e-13 3.72261e-12 0 3.14298e-20 2.20814e-27
2654 89 0.0015 -0.619284 -1.8578 0 -4.56331e-12 3.59567e-12 0 5.32605e-21 2.23957e-26
10316 344 0.0015 -0.532903 -1.85672 0 3.8439e-12 -1.67975e-12 0 0 7.36585e-27
10315 344 0.0015 -0.530079 -1.85763 0 -4.41643e-12 -1.10912e-12 0 0 6.21248e-27
8013 268 0.0015 -0.167482 -1.85688 0 6.17815e-13 1.73167e-12 0 5.70726e-21 6.83877e-27
10336 345 0.0015 -0.0706718 -1.85667 0 -1.72823e-12 6.27387e-12 0 0 2.76233e-26
4533 152 0.0015 0.36352 -1.85607 0 3.76791e-13 -2.53472e-12 0 5.72705e-21 1.62327e-26
10272 343 0.0015 0.425614 -1.85738 0 -2.2199e-12 -6.91691e-12 0 0 2.89799e-26
1486 50 0.0015 0.59026 -1.85684 0 -1.81177e-12 -1.50543e-12 0 0 5.66067e-27
3522 118 0.0015 0.683648 -1.85795 0 -3.15707e-12 -4.4447e-12 0 1.57149e-20 2.03828e-26
3521 118 0.0015 0.686185 -1.85603 0 3.59115e-12 2.22414e-12 0 1.57149e-20 2.05312e-26
2655 89 0.0015 -0.623004 -1.85494 0 -4.16075e-13 -1.25564e-13 0 1.06521e-20 1.81138e-26
10318 344 0.0015 -0.538552 -1.85491 0 3.50028e-12 -3.30029e-12 0 1.68424e-20 7.78602e-27
10317 344 0.0015 -0.535727 -1.85581 0 -3.43982e-12 4.66956e-12 0 1.68424e-20 9.12306e-27
6037 202 0.0015 -0.342237 -1.85471 0 -1.01293e-12 1.62004e-12 0 0 1.34042e-26
1960 66 0.0015 0.0113172 -1.85437 0 7.02782e-14 -1.53039e-12 0 5.20104e-21 1.60305e-27
3520 118 0.0015 0.688722 -1.85412 0 2.83884e-12 4.54242e-12 0 0 1.75669e-26
2656 89 0.0015 -0.626725 -1.85209 0 5.58044e-12 -3.4753e-12 0 1.59781e-20 2.8567e-26
10320 344 0.0015 -0.5442 -1.85309 0 1.58874e-12 3.24466e-13 0 0 1.64587e-27
10319 344 0.0015 -0.541376 -1.854 0 -3.55733e-12 2.98492e-13 0 1.68424e-20 5.15873e-27
10337 345 0.0015 -0.0713486 -1.85356 0 2.85411e-12 -7.68742e-12 0 0 3.27894e-26
8048 269 0.0015 0.150617 -1.85348 0 -4.32039e-13 4.17397e-12 0 0 1.73691e-26
10273 343 0.0015 0.426335 -1.85342 0 2.17497e-12 7.56385e-12 0 0 3.45308e-26
1487 50 0.0015 0.592486 -1.85392 0 1.23785e-12 3.73181e-14 0 0 7.25897e-28
3519 118 0.0015 0.69126 -1.8522 0 -1.93766e-12 -4.32464e-12 0 1.57149e-20 1.73337e-26
10338 345 0.0015 -0.0720254 -1.85046 0 -2.21205e-12 5.12727e-12 0 0 1.3291e-26
10205 341 0.0015 0.286904 -1.85184 0 4.0586e-13 -4.25417e-12 0 0 1.71758e-26
6006 201 0.0015 0.506013 -1.85168 0 2.39378e-12 6.34447e-12 0 0 5.99604e-26
1488 50 0.0015 0.594712 -1.85101 0 -2.39501e-12 -1.58173e-12 0 0 4.27915e-27
3518 118 0.0015 0.693797 -1.85028 0 -4.25156e-12 -1.35164e-12 0 1.57149e-20 1.37563e-26
2657 89 0.0015 -0.630446 -1.84923 0 -5.2299e-12 3.18628e-12 0 1.06521e-20 2.55698e-26
1961 66 0.0015 0.0108371 -1.84959 0 -3.5567e-13 4.52599e-12 0 0 1.88173e-26
4772 160 0.0015 0.0782973 -1.84905 0 -2.63267e-16 -6.55343e-14 0 0 4.36409e-27
10274 343 0.0015 0.427056 -1.84946 0 -1.82699e-12 -7.33287e-12 0 0 3.23191e-26
1489 50 0.0015 0.596939 -1.8481 0 1.89303e-12 1.7142e-12 0 0 3.97734e-27
3517 118 0.0015 0.696334 -1.84837 0 6.53364e-12 4.65465e-12 0 1.57149e-20 2.84028e-26
2658 89 0.0015 -0.634167 -1.84638 0 1.92517e-12 -8.00948e-13 0 5.32605e-21 7.04066e-27
6038 202 0.0015 -0.34704 -1.84697 0 2.86893e-12 -4.58671e-12 0 0 3.79486e-26
10339 345 0.0015 -0.0727023 -1.84735 0 2.21004e-12 -6.97543e-12 0 1.57149e-20 2.45078e-26
8049 269 0.0015 0.149922 -1.84674 0 1.73551e-13 -2.04793e-12 0 0 5.37172e-27
6541 219 0.0015 0.213251 -1.84656 0 7.46324e-14 -8.55275e-13 0 0 1.45539e-27
4534 152 0.0015 0.362172 -1.84745 0 -1.043e-12 7.01424e-12 0 1.14541e-20 6.53679e-26
3516 118 0.0015 0.698871 -1.84645 0 -4.73426e-12 -5.13877e-12 0 0 2.16008e-26
8014 268 0.0015 -0.163039 -1.84452 0 -8.05736e-13 -2.23142e-12 0 0 1.02746e-26
10340 345 0.0015 -0.0733791 -1.84424 0 -2.59824e-12 1.08302e-11 0 1.57149e-20 5.7072e-26
1962 66 0.0015 0.010357 -1.84481 0 1.37649e-12 -1.40694e-11 0 0 1.64514e-25
10206 341 0.0015 0.286103 -1.84511 0 -3.74899e-13 3.59899e-12 0 3.6872e-21 1.26805e-26
10275 343 0.0015 0.427777 -1.84551 0 7.25758e-13 2.32848e-12 0 0 1.27798e-26
1490 50 0.0015 0.599165 -1.84519 0 -3.25018e-12 -3.79054e-12 0 0 1.96239e-26
3515 118 0.0015 0.701409 -1.84454 0 -5.16354e-14 3.65092e-12 0 1.57149e-20 7.24555e-27
2659 89 0.0015 -0.637888 -1.84352 0 5.23961e-13 -1.10466e-12 0 0 9.37686e-28
6007 201 0.0015 0.509028 -1.84391 0 -1.32512e-12 -3.60902e-12 0 0 1.74174e-26
1491 50 0.0015 0.601391 -1.84228 0 6.89604e-12 7.76723e-12 0 0 5.60558e-26
3514 118 0.0015 0.703946 -1.84262 0 7.61659e-13 -4.44635e-12 0 3.14298e-20 6.82105e-27
2660 89 0.0015 -0.641609 -1.84066 0 5.07594e-13 5.80294e-13 0 0 1.75987e-27
10341 345 0.0015 -0.074056 -1.84114 0 2.28754e-12 -1.41331e-11 0 1.57149e-20 9.05752e-26
1963 66 0.0015 0.00987681 -1.84004 0 -1.62379e-12 1.56659e-11 0 5.20104e-21 1.8369e-25
10276 343 0.0015 0.428498 -1.84155 0 -7.25758e-13 -2.32848e-12 0 0 1.27798e-26
3513 118 0.0015 0.706483 -1.84071 0 4.68042e-12 8.33087e-12 0 3.14298e-20 3.8781e-26
6039 202 0.0015 -0.351842 -1.83924 0 -2.41187e-12 3.87247e-12 0 2.74394e-21 3.00171e-26
10342 345 0.0015 -0.0747328 -1.83803 0 -4.92064e-14 9.21863e-12 0 0 5.25809e-26
4773 160 0.0015 0.0780361 -1.83985 0 1.01374e-13 -3.30839e-12 0 0 1.6987e-26
8050 269 0.0015 0.149226 -1.84 0 -7.0089e-14 1.48012e-12 0 0 2.44944e-27
6542 219 0.0015 0.21269 -1.83947 0 -6.72617e-14 7.66858e-13 0 0 1.47093e-27
10207 341 0.0015 0.285302 -1.83839 0 3.795e-13 -2.60364e-12 0 1.47488e-20 6.63602e-27
4535 152 0.0015 0.360823 -1.83883 0 1.22244e-12 -8.11996e-12 0 1.71811e-20 8.24588e-26
1492 50 0.0015 0.603618 -1.83936 0 -7.07498e-12 -6.79767e-12 0 6.81478e-21 5.06507e-26
3512 118 0.0015 0.70902 -1.83879 0 -6.53718e-12 -8.00113e-12 0 1.57149e-20 4.63676e-26
2661 89 0.0015 -0.64533 -1.83781 0 -7.21382e-13 -6.75178e-13 0 5.32605e-21 1.54397e-27
10277 343 0.0015 0.429219 -1.8376 0 1.82699e-12 7.33287e-12 0 0 3.23191e-26
6008 201 0.0015 0.512043 -1.83614 0 1.13237e-12 2.98203e-12 0 0 1.17956e-26
1493 50 0.0015 0.605844 -1.83645 0 5.41912e-12 4.33893e-12 0 6.81478e-21 2.33143e-26
3511 118 0.0015 0.711558 -1.83688 0 2.74769e-12 2.98088e-12 0 0 1.4052e-26
2662 89 0.0015 -0.649051 -1.83495 0 -2.59222e-12 3.0555e-12 0 5.32605e-21 1.4218e-26
10343 345 0.0015 -0.0754097 -1.83493 0 -1.36641e-12 -3.33051e-12 0 0 3.88077e-27
1964 66 0.0015 0.00939668 -1.83526 0 4.04181e-13 -3.50476e-12 0 1.04021e-20 4.09474e-26
2663 89 0.0015 -0.652772 -1.8321 0 5.93418e-12 -5.07327e-12 0 1.06521e-20 4.07518e-26
10171 340 0.0015 -0.234195 -1.83312 0 1.06469e-12 -1.49761e-12 0 0 7.33212e-27
8015 268 0.0015 -0.158597 -1.83216 0 6.79842e-13 1.897e-12 0 0 7.55195e-27
8051 269 0.0015 0.14853 -1.83326 0 -5.73855e-14 -3.46028e-13 0 0 3.1052e-27
6543 219 0.0015 0.212128 -1.83239 0 -1.51546e-13 1.61068e-12 0 0 4.6314e-27
10278 343 0.0015 0.429939 -1.83364 0 -2.17497e-12 -7.56385e-12 0 0 3.45308e-26
1494 50 0.0015 0.60807 -1.83354 0 -3.66446e-12 -3.12209e-12 0 6.81478e-21 1.22841e-26
6040 202 0.0015 -0.356645 -1.83151 0 3.65424e-13 -5.72685e-13 0 2.74394e-21 6.54838e-27
10344 345 0.0015 -0.0760865 -1.83182 0 -8.28981e-13 8.73536e-12 0 0 4.76438e-26
1965 66 0.0015 0.00891654 -1.83048 0 2.05773e-13 -1.93415e-12 0 1.04021e-20 4.07107e-27
4774 160 0.0015 0.0777749 -1.83066 0 -1.58717e-13 5.24326e-12 0 0 3.53767e-26
10208 341 0.0015 0.284501 -1.83166 0 -6.52266e-14 -5.74728e-13 0 1.47488e-20 7.8166e-27
4536 152 0.0015 0.359475 -1.83021 0 -7.83589e-13 5.12451e-12 0 2.00447e-20 3.85996e-26
1495 50 0.0015 0.610297 -1.83063 0 6.86397e-13 7.90113e-13 0 0 3.14005e-27
2664 89 0.0015 -0.656493 -1.82924 0 -4.2002e-12 3.39356e-12 0 5.32605e-21 2.80501e-26
10345 345 0.0015 -0.0767633 -1.82871 0 2.56248e-12 -1.21632e-11 0 0 6.98808e-26
10279 343 0.0015 0.43066 -1.82968 0 2.2199e-12 6.91691e-12 0 0 2.89799e-26
6009 201 0.0015 0.515058 -1.82837 0 -8.06318e-13 -2.0585e-12 0 0 6.48751e-27
2665 89 0.0015 -0.660213 -1.82639 0 -2.23114e-12 1.63496e-12 0 5.32605e-21 1.77795e-26
10172 340 0.0015 -0.238704 -1.82673 0 -6.85037e-13 9.11016e-13 0 0 8.39065e-27
8052 269 0.0015 0.147835 -1.82652 0 3.12049e-13 -2.42527e-12 0 0 6.5598e-27
1496 50 0.0015 0.612523 -1.82772 0 5.73878e-12 6.32074e-12 0 0 6.39601e-26
10346 345 0.0015 -0.0774402 -1.82561 0 -1.64282e-12 7.16554e-12 0 0 2.8212e-26
1966 66 0.0015 0.0084364 -1.8257 0 4.27806e-14 -9.55218e-13 0 1.04021e-20 1.87222e-27
6544 219 0.0015 0.211567 -1.8253 0 2.6415e-13 -2.69704e-12 0 0 7.36808e-27
10209 341 0.0015 0.2837 -1.82493 0 -5.2314e-13 5.32517e-12 0 1.10616e-20 3.05435e-26
10280 343 0.0015 0.431381 -1.82573 0 -1.73108e-12 -5.1374e-12 0 0 1.81222e-26
1497 50 0.0015 0.614749 -1.8248 0 -5.86444e-12 -5.19178e-12 0 0 6.36359e-26
2666 89 0.0015 -0.663934 -1.82353 0 5.4764e-12 -4.18939e-12 0 0 3.10291e-26
6041 202 0.0015 -0.361448 -1.82377 0 3.87784e-13 -7.04971e-13 0 2.74394e-21 1.4169e-27
10347 345 0.0015 -0.078117 -1.8225 0 -6.28542e-13 3.35897e-12 0 0 3.08397e-26
2667 89 0.0015 -0.667655 -1.82068 0 -2.49891e-12 1.81039e-12 0 0 1.4213e-26
10173 340 0.0015 -0.243212 -1.82034 0 -1.75829e-13 3.64779e-13 0 0 1.25236e-27
1967 66 0.0015 0.00795626 -1.82092 0 -3.79223e-13 4.37285e-12 0 1.04021e-20 1.5673e-26
4775 160 0.0015 0.0775136 -1.82146 0 1.3524e-13 -4.45766e-12 0 0 2.72357e-26
4537 152 0.0015 0.358127 -1.82159 0 3.08038e-13 -1.93465e-12 0 1.43176e-20 5.84344e-27
10281 343 0.0015 0.432102 -1.82177 0 7.46181e-13 1.55032e-12 0 0 3.32703e-27
6010 201 0.0015 0.518074 -1.8206 0 5.09908e-13 1.47658e-12 0 0 2.86548e-27
1498 50 0.0015 0.616976 -1.82189 0 -3.81881e-12 -8.61145e-12 0 0 8.15049e-26
8016 268 0.0015 -0.154154 -1.81981 0 -1.98004e-13 -5.91533e-13 0 0 2.9493e-27
10348 345 0.0015 -0.0787939 -1.81939 0 1.42731e-12 -9.3325e-12 0 0 4.03615e-26
8053 269 0.0015 0.147139 -1.81978 0 -2.38982e-13 2.14033e-12 0 0 5.92708e-27
6545 219 0.0015 0.211005 -1.81821 0 -1.81625e-13 1.8523e-12 0 0 3.66607e-27
10210 341 0.0015 0.282899 -1.8182 0 7.30802e-13 -6.31092e-12 0 0 3.88387e-26
1499 50 0.0015 0.619202 -1.81898 0 1.32738e-12 4.74105e-12 0 0 1.00917e-25
2668 89 0.0015 -0.671376 -1.81782 0 -1.24429e-12 1.27924e-12 0 5.32605e-21 3.20602e-27
6042 202 0.0015 -0.366251 -1.81604 0 5.33423e-13 -7.2495e-13 0 2.74394e-21 2.31157e-27
10349 345 0.0015 -0.0794707 -1.81629 0 6.81475e-13 5.40289e-13 0 0 2.43676e-26
1968 66 0.0015 0.00747613 -1.81614 0 7.95694e-13 -8.48782e-12 0 1.56031e-20 5.13593e-26
10282 343 0.0015 0.432823 -1.81781 0 -5.05571e-13 -1.37671e-12 0 0 2.55395e-27
1500 50 0.0015 0.621428 -1.81607 0 3.13432e-12 3.10665e-12 0 0 1.94597e-26
2669 89 0.0015 -0.675097 -1.81497 0 1.10637e-12 -1.20828e-12 0 5.32605e-21 3.15224e-27
5941 199 0.0015 0.740778 -1.81551 0 -3.44048e-13 -1.32305e-12 0 0 4.98542e-27
2670 89 0.0015 -0.678818 -1.81211 0 2.23122e-14 1.25869e-13 0 5.32605e-21 4.52274e-30
10174 340 0.0015 -0.24772 -1.81396 0 -2.80646e-13 3.28194e-13 0 0 2.31215e-28
10350 345 0.0015 -0.0801475 -1.81318 0 -1.04978e-12 3.37183e-12 0 0 1.09298e-26
4776 160 0.0015 0.0772524 -1.81226 0 4.61448e-15 -4.4902e-13 0 0 1.79009e-26
8054 269 0.0015 0.146443 -1.81304 0 2.12566e-13 -2.12916e-12 0 0 5.83787e-27
4538 152 0.0015 0.356779 -1.81297 0 -6.42899e-14 3.67275e-13 0 8.59057e-21 5.95368e-28
10283 343 0.0015 0.433544 -1.81386 0 1.25863e-12 6.00607e-12 0 0 2.64305e-26
6011 201 0.0015 0.521089 -1.81283 0 -1.94491e-13 -9.28566e-13 0 0 1.79698e-27
1969 66 0.0015 0.00699599 -1.81136 0 -7.43768e-13 7.74832e-12 0 1.04021e-20 4.57192e-26
6546 219 0.0015 0.210443 -1.81113 0 5.29714e-14 -7.73935e-13 0 0 9.31819e-28
10211 341 0.0015 0.282098 -1.81148 0 -8.72208e-13 6.81184e-12 0 0 4.64085e-26
6043 202 0.0015 -0.371054 -1.8083 0 -4.58511e-13 6.38838e-13 0 2.74394e-21 2.37622e-27
10284 343 0.0015 0.434265 -1.8099 0 -1.35962e-12 -7.09857e-12 0 0 3.14531e-26
10175 340 0.0015 -0.252228 -1.80757 0 -1.08262e-12 1.50083e-12 0 0 8.56535e-27
8017 268 0.0015 -0.149712 -1.80745 0 -1.28592e-13 -3.19808e-13 0 0 2.52222e-28
1970 66 0.0015 0.00651585 -1.80658 0 -1.24722e-13 1.44554e-12 0 5.20104e-21 2.88566e-26
8055 269 0.0015 0.145748 -1.8063 0 -2.37949e-13 2.4064e-12 0 0 6.43669e-27
5942 199 0.0015 0.743061 -1.80618 0 7.75193e-13 2.91693e-12 0 2.60052e-21 1.22558e-26
6547 219 0.0015 0.209882 -1.80404 0 -1.22617e-13 2.06693e-12 0 0 7.71834e-27
10212 341 0.0015 0.281297 -1.80475 0 8.29053e-13 -6.65301e-12 0 0 4.48049e-26
4539 152 0.0015 0.35543 -1.80435 0 -3.81905e-13 2.31165e-12 0 0 1.21066e-26
10285 343 0.0015 0.434986 -1.80595 0 1.25486e-12 6.52116e-12 0 0 2.5776e-26