ITEM: TIMESTEP
15910
ITEM: NUMBER OF ATOMS
10500
ITEM: BOX BOUNDS pp pp pp
-1.0249999999999999e+00 1.0249999999999999e+00
-2.0000000000000000e+00 2.0000000000000000e+00
-5.0000000000000003e-02 5.0000000000000003e-02
ITEM: ATOMS id type radius x y z fx fy fz c_bendingE c_stretchingE
10321 345 0.0015 -0.0605191 -1.90326 0 2.08625e-13 -8.91901e-13 0 0 7.4078e-28
6031 202 0.0015 -0.31342 -1.90111 0 -1.32932e-13 2.11174e-13 0 0 1.57453e-28
10322 345 0.0015 -0.061196 -1.90016 0 -1.09604e-12 4.60974e-12 0 1.57149e-20 1.36377e-26
8041 269 0.0015 0.155487 -1.90065 0 -2.61172e-13 2.48636e-12 0 0 1.17622e-26
10261 343 0.0015 0.417684 -1.90089 0 2.099e-13 9.99445e-13 0 1.24237e-20 1.16417e-27
1471 50 0.0015 0.556864 -1.90052 0 1.72822e-12 1.76233e-12 0 6.81478e-21 6.11032e-27
10323 345 0.0015 -0.0618728 -1.89705 0 1.45076e-12 -5.66324e-12 0 1.57149e-20 1.65029e-26
1951 66 0.0015 0.0156385 -1.89738 0 -1.78213e-13 1.80802e-12 0 5.20104e-21 4.40361e-27
10262 343 0.0015 0.418405 -1.89694 0 -4.60035e-13 -1.77116e-12 0 1.24237e-20 1.88633e-27
1472 50 0.0015 0.559091 -1.8976 0 -4.10372e-12 -4.15223e-12 0 1.36296e-20 1.74784e-26
2641 89 0.0015 -0.570912 -1.89491 0 6.58411e-13 -2.91615e-13 0 5.32605e-21 6.38156e-28
1473 50 0.0015 0.561317 -1.89469 0 2.83334e-12 2.89203e-12 0 2.04443e-20 1.18348e-26
2642 89 0.0015 -0.574633 -1.89206 0 -1.38098e-12 4.4823e-13 0 5.32605e-21 1.22053e-27
6032 202 0.0015 -0.318223 -1.89337 0 5.63533e-14 -8.77393e-14 0 0 2.1081e-28
10324 345 0.0015 -0.0625496 -1.89394 0 -4.76667e-13 7.78959e-13 0 3.14298e-20 4.79037e-27
1952 66 0.0015 0.0151583 -1.8926 0 2.32358e-13 -2.44571e-12 0 1.04021e-20 4.94988e-27
8042 269 0.0015 0.154791 -1.89391 0 5.5548e-13 -5.27778e-12 0 0 2.65888e-26
10263 343 0.0015 0.419126 -1.89298 0 6.29878e-13 2.26013e-12 0 2.48474e-20 3.3452e-27
3540 118 0.0015 0.637977 -1.89243 0 -8.58864e-13 -5.65228e-13 0 0 9.29635e-28
6061 203 0.0015 -0.387409 -1.89062 0 -2.20433e-13 -7.95723e-13 0 0 1.12465e-29
10325 345 0.0015 -0.0632265 -1.89084 0 2.14861e-13 5.03696e-13 0 3.14298e-20 1.63175e-27
10231 342 0.0015 0.215 -1.89 0 -4.26686e-14 0 0 0 3.45155e-31
10232 342 0.0015 0.21569 -1.89 0 -2.53103e-13 0 0 0 1.71291e-29
10233 342 0.0015 0.216379 -1.89 0 1.23129e-12 0 0 0 1.84447e-28
10234 342 0.0015 0.217069 -1.89 0 -9.05748e-13 0 0 0 1.67835e-28
10235 342 0.0015 0.217759 -1.89 0 -2.17104e-13 0 0 0 6.89511e-30
10236 342 0.0015 0.218448 -1.89 0 -8.69083e-13 0 0 0 2.20607e-28
10237 342 0.0015 0.219138 -1.89 0 1.37573e-12 0 0 0 2.33473e-28
10238 342 0.0015 0.219828 -1.89 0 -2.17104e-13 0 0 0 2.15981e-29
10239 342 0.0015 0.220517 -1.89 0 3.61988e-13 0 0 0 4.33699e-29
10240 342 0.0015 0.221207 -1.89 0 -3.98431e-13 0 0 0 4.21997e-29
10241 342 0.0015 0.221897 -1.89 0 -4.70873e-13 0 0 0 3.22091e-29
10242 342 0.0015 0.222586 -1.89 0 1.3764e-12 0 0 0 2.12266e-28
10243 342 0.0015 0.223276 -1.89 0 -2.24504e-12 0 0 0 4.91812e-28
10244 342 0.0015 0.223966 -1.89 0 2.31837e-12 0 0 0 5.19789e-28
10245 342 0.0015 0.224655 -1.89 0 -2.2457e-12 0 0 0 4.85435e-28
10246 342 0.0015 0.225345 -1.89 0 2.2457e-12 0 0 0 4.85435e-28
10247 342 0.0015 0.226034 -1.89 0 -2.31837e-12 0 0 0 5.19789e-28
10248 342 0.0015 0.226724 -1.89 0 2.24504e-12 0 0 0 4.91812e-28
10249 342 0.0015 0.227414 -1.89 0 -1.3764e-12 0 0 0 2.12266e-28
10250 342 0.0015 0.228103 -1.89 0 4.70873e-13 0 0 0 3.22091e-29
10251 342 0.0015 0.228793 -1.89 0 3.98431e-13 0 0 0 4.21997e-29
10252 342 0.0015 0.229483 -1.89 0 -3.61988e-13 0 0 0 4.33699e-29
10253 342 0.0015 0.230172 -1.89 0 2.17104e-13 0 0 0 2.15981e-29
10254 342 0.0015 0.230862 -1.89 0 -1.37573e-12 0 0 0 2.33473e-28
10255 342 0.0015 0.231552 -1.89 0 8.69083e-13 0 0 0 2.20607e-28
10256 342 0.0015 0.232241 -1.89 0 2.17104e-13 0 0 0 6.89511e-30
10257 342 0.0015 0.232931 -1.89 0 9.05748e-13 0 0 0 1.67835e-28
10258 342 0.0015 0.233621 -1.89 0 -1.23129e-12 0 0 0 1.84447e-28
10259 342 0.0015 0.23431 -1.89 0 2.53103e-13 0 0 0 1.71291e-29
10260 342 0.0015 0.235 -1.89 0 4.26686e-14 0 0 0 3.45155e-31
6001 201 0.0015 0.490936 -1.89052 0 -2.64025e-15 -1.9474e-14 0 0 8.45347e-31
1474 50 0.0015 0.563543 -1.89178 0 7.21867e-13 8.15553e-13 0 1.36296e-20 3.63262e-27
3539 118 0.0015 0.640514 -1.89051 0 7.27057e-13 1.38272e-13 0 1.57149e-20 1.04563e-27
2643 89 0.0015 -0.578354 -1.8892 0 1.88675e-12 -7.39457e-13 0 5.32605e-21 2.71164e-27
6063 203 0.0015 -0.391043 -1.8889 0 2.15836e-12 -2.17895e-12 0 0 4.26548e-27
6064 203 0.0015 -0.392859 -1.88804 0 -3.75878e-12 4.43931e-12 0 0 7.85502e-27
6062 203 0.0015 -0.389226 -1.88976 0 4.80183e-13 1.6307e-12 0 0 1.9733e-29
10264 343 0.0015 0.419847 -1.88903 0 -8.53892e-13 -4.21125e-12 0 1.24237e-20 1.1155e-26
1475 50 0.0015 0.56577 -1.88887 0 -9.75043e-13 -1.02447e-12 0 6.81478e-21 3.29589e-27
3538 118 0.0015 0.643052 -1.8886 0 -1.91212e-13 5.38338e-13 0 1.57149e-20 1.481e-28
2644 89 0.0015 -0.582074 -1.88635 0 -1.93491e-12 1.00915e-12 0 0 3.11759e-27
6066 203 0.0015 -0.396492 -1.88631 0 -3.77174e-13 6.45065e-12 0 0 3.10984e-27
6065 203 0.0015 -0.394676 -1.88717 0 1.51645e-12 -7.77168e-12 0 0 6.21178e-27
7981 267 0.0015 -0.194876 -1.88635 0 -1.80214e-13 -8.29698e-13 0 0 1.07831e-29
10326 345 0.0015 -0.0639033 -1.88773 0 -8.69265e-13 3.03349e-12 0 4.71447e-20 5.69322e-27
1953 66 0.0015 0.0146782 -1.88782 0 1.80413e-13 -1.5569e-12 0 1.04021e-20 7.04481e-27
8043 269 0.0015 0.154095 -1.88717 0 -4.84898e-13 4.64089e-12 0 0 2.13321e-26
3537 118 0.0015 0.645589 -1.88668 0 9.52508e-14 -4.45455e-13 0 1.57149e-20 1.61679e-28
6068 203 0.0015 -0.400126 -1.88459 0 3.05694e-12 -2.98621e-12 0 0 4.78748e-27
6067 203 0.0015 -0.398309 -1.88545 0 -5.46211e-13 3.16431e-13 0 0 1.87559e-27
6033 202 0.0015 -0.323025 -1.88564 0 4.41719e-13 -6.94688e-13 0 0 1.21555e-27
7983 267 0.0015 -0.199527 -1.8846 0 -1.0079e-12 1.32655e-13 0 0 4.17061e-28
7982 267 0.0015 -0.197202 -1.88548 0 6.84894e-13 1.44036e-12 0 0 5.60549e-29
10327 345 0.0015 -0.0645802 -1.88463 0 2.95578e-13 -1.53795e-12 0 4.71447e-20 5.91691e-27
10265 343 0.0015 0.420568 -1.88507 0 6.11486e-13 4.11257e-12 0 1.24237e-20 1.06959e-26
1476 50 0.0015 0.567996 -1.88596 0 -1.30811e-12 -1.45302e-12 0 0 2.70918e-27
3536 118 0.0015 0.648126 -1.88476 0 6.55609e-13 8.66265e-13 0 0 5.16719e-28
2645 89 0.0015 -0.585795 -1.88349 0 4.65189e-13 -6.35972e-14 0 0 1.26784e-27
6071 203 0.0015 -0.405575 -1.882 0 -1.04676e-13 -5.43857e-12 0 0 1.4603e-27
6070 203 0.0015 -0.403759 -1.88287 0 2.79319e-12 6.4394e-12 0 0 6.64274e-28
6069 203 0.0015 -0.401942 -1.88373 0 -4.38157e-12 -1.97066e-12 0 0 3.63941e-27
7985 267 0.0015 -0.204179 -1.88284 0 3.13238e-12 -9.43295e-13 0 1.00459e-20 3.95441e-27
7984 267 0.0015 -0.201853 -1.88372 0 -7.60954e-13 -7.37108e-13 0 0 1.34111e-27
1954 66 0.0015 0.0141981 -1.88304 0 -4.29956e-13 4.0569e-12 0 5.20104e-21 1.11765e-26
6002 201 0.0015 0.493952 -1.88275 0 1.02436e-13 2.80185e-13 0 0 1.81233e-28
1477 50 0.0015 0.570222 -1.88304 0 2.79483e-12 3.04344e-12 0 0 9.06431e-27
3535 118 0.0015 0.650663 -1.88285 0 -6.84738e-13 -8.96344e-13 0 0 5.46222e-28
2646 89 0.0015 -0.589516 -1.88064 0 -2.83967e-13 -1.69667e-13 0 0 7.25688e-28
6073 203 0.0015 -0.409209 -1.88028 0 8.6141e-13 -1.44657e-12 0 0 1.03559e-27
6072 203 0.0015 -0.407392 -1.88114 0 -1.77387e-12 2.60085e-12 0 0 2.06228e-27
7988 267 0.0015 -0.211156 -1.8802 0 8.06315e-13 -5.53406e-13 0 0 3.13137e-28
7987 267 0.0015 -0.208831 -1.88108 0 -1.27918e-13 -6.99423e-13 0 1.00459e-20 4.56861e-28
7986 267 0.0015 -0.206505 -1.88196 0 -2.29849e-12 1.59556e-12 0 1.00459e-20 3.26396e-27
8011 268 0.0015 -0.176367 -1.88159 0 -1.61526e-13 -4.44053e-13 0 0 8.14353e-28
10328 345 0.0015 -0.065257 -1.88152 0 1.17912e-12 -4.31115e-12 0 3.14298e-20 1.20633e-26
8044 269 0.0015 0.1534 -1.88043 0 2.66802e-13 -2.58343e-12 0 3.6872e-21 7.53016e-27
10266 343 0.0015 0.421289 -1.88111 0 2.63874e-13 1.12732e-13 0 0 4.84783e-27
1478 50 0.0015 0.572449 -1.88013 0 -2.84945e-12 -3.08024e-12 0 0 9.27051e-27
3534 118 0.0015 0.653201 -1.88093 0 3.28042e-13 3.17412e-13 0 0 1.59801e-28
10292 344 0.0015 -0.465124 -1.8785 0 -3.77463e-12 3.39186e-13 0 0 5.63705e-27
10291 344 0.0015 -0.4623 -1.87941 0 1.89004e-12 -3.36206e-13 0 0 2.98168e-27
6074 203 0.0015 -0.411025 -1.87942 0 2.11638e-12 1.36264e-12 0 0 1.0418e-27
6075 203 0.0015 -0.412842 -1.87856 0 -2.49717e-12 -7.46641e-13 0 0 1.22307e-27
7990 267 0.0015 -0.215808 -1.87844 0 -3.80681e-12 -2.68848e-12 0 0 2.38655e-27
7989 267 0.0015 -0.213482 -1.87932 0 1.3609e-12 1.60804e-12 0 0 1.0428e-27
10329 345 0.0015 -0.0659339 -1.87841 0 -1.66182e-12 6.43738e-12 0 1.57149e-20 1.96175e-26
1955 66 0.0015 0.0137179 -1.87827 0 1.64506e-13 -1.6668e-12 0 5.20104e-21 4.73012e-27
10201 341 0.0015 0.290108 -1.87875 0 1.86729e-13 -1.68273e-12 0 0 5.39397e-27
3533 118 0.0015 0.655738 -1.87902 0 -1.20661e-12 -5.44547e-13 0 0 1.40823e-27
2647 89 0.0015 -0.593237 -1.87778 0 7.84502e-13 -8.19155e-14 0 5.32605e-21 4.56034e-28
10294 344 0.0015 -0.470773 -1.87669 0 -3.03402e-12 -3.3547e-13 0 1.68424e-20 3.25497e-27
10293 344 0.0015 -0.467948 -1.87759 0 3.60038e-12 1.74094e-13 0 0 4.71071e-27
6077 203 0.0015 -0.416475 -1.87683 0 -1.10109e-12 -2.25975e-12 0 0 3.58972e-28
6076 203 0.0015 -0.414658 -1.87769 0 3.44596e-13 6.8612e-13 0 0 3.53233e-28
6034 202 0.0015 -0.327828 -1.87791 0 -3.27535e-13 4.82567e-13 0 0 1.1851e-27
7992 267 0.0015 -0.22046 -1.87668 0 -3.02614e-12 -2.72368e-12 0 0 1.45135e-27
7991 267 0.0015 -0.218134 -1.87756 0 4.2877e-12 3.36512e-12 0 0 2.75049e-27
10267 343 0.0015 0.42201 -1.87716 0 -8.70759e-13 -3.62114e-12 0 0 7.93673e-27
1479 50 0.0015 0.574675 -1.87722 0 1.13999e-12 6.56044e-13 0 0 2.98292e-27
3532 118 0.0015 0.658275 -1.8771 0 8.90359e-13 2.20339e-14 0 0 1.66369e-27
2648 89 0.0015 -0.596958 -1.87493 0 -2.8151e-13 -2.09128e-13 0 1.06521e-20 9.97709e-30
10296 344 0.0015 -0.476421 -1.87487 0 -2.61552e-12 1.94473e-12 0 1.68424e-20 3.96347e-27
10295 344 0.0015 -0.473597 -1.87578 0 2.89369e-12 -5.04805e-13 0 1.68424e-20 3.58876e-27
6080 203 0.0015 -0.421925 -1.87425 0 -1.33148e-12 -1.06408e-12 0 2.48474e-20 1.64069e-27
6079 203 0.0015 -0.420108 -1.87511 0 2.53043e-12 -2.35727e-12 0 2.48474e-20 3.0514e-27
6078 203 0.0015 -0.418291 -1.87597 0 5.30907e-13 3.89599e-12 0 2.48474e-20 1.93793e-27
7995 267 0.0015 -0.227437 -1.87404 0 7.81326e-13 2.16072e-13 0 0 2.10896e-28
7994 267 0.0015 -0.225111 -1.87492 0 -2.97137e-13 1.34215e-13 0 0 2.3401e-28
7993 267 0.0015 -0.222785 -1.8758 0 7.48555e-13 1.14588e-12 0 0 2.11792e-28
10330 345 0.0015 -0.0666107 -1.87531 0 4.84014e-13 -1.31947e-12 0 0 1.06576e-26
6003 201 0.0015 0.496967 -1.87498 0 -1.55463e-13 -3.97264e-13 0 0 2.30713e-28
1480 50 0.0015 0.576901 -1.87431 0 8.17667e-13 2.14123e-12 0 0 3.34167e-27
3531 118 0.0015 0.660812 -1.87519 0 -3.70254e-13 3.99314e-13 0 1.57149e-20 5.67227e-28
2649 89 0.0015 -0.600679 -1.87207 0 1.22632e-12 -5.68815e-13 0 1.06521e-20 2.23659e-27
10299 344 0.0015 -0.484893 -1.87215 0 -1.89841e-12 -1.46688e-14 0 3.36849e-20 1.33923e-27
10298 344 0.0015 -0.482069 -1.87306 0 1.15222e-12 1.50197e-12 0 1.68424e-20 7.18194e-28
10297 344 0.0015 -0.479245 -1.87396 0 9.48549e-13 -2.41426e-12 0 1.68424e-20 1.62976e-27
6082 203 0.0015 -0.425558 -1.87252 0 -4.10618e-12 1.35256e-12 0 4.96948e-20 5.86405e-27
6081 203 0.0015 -0.423741 -1.87338 0 1.09631e-12 1.00563e-12 0 2.48474e-20 1.34089e-27
7997 267 0.0015 -0.232089 -1.87228 0 2.05495e-12 -2.6583e-12 0 0 2.91322e-27
7996 267 0.0015 -0.229763 -1.87316 0 -1.34378e-12 1.19151e-13 0 0 9.79527e-28
10331 345 0.0015 -0.0672875 -1.8722 0 6.6975e-13 -3.79076e-12 0 0 6.65556e-27
1956 66 0.0015 0.0132378 -1.87349 0 -3.24442e-15 3.41088e-13 0 5.20104e-21 4.37313e-28
8045 269 0.0015 0.152704 -1.87369 0 -1.32613e-13 1.22392e-12 0 7.37441e-21 1.48238e-27
10202 341 0.0015 0.289307 -1.87202 0 -3.86408e-13 3.56431e-12 0 0 1.21305e-26
4531 152 0.0015 0.366216 -1.8733 0 5.69428e-14 -3.80375e-13 0 0 3.58446e-28
10268 343 0.0015 0.422731 -1.8732 0 5.97523e-13 2.8574e-12 0 0 5.88068e-27
3530 118 0.0015 0.66335 -1.87327 0 1.82271e-12 1.17091e-12 0 3.14298e-20 2.47866e-27
10301 344 0.0015 -0.490541 -1.87033 0 -4.39763e-12 2.13486e-12 0 3.36849e-20 9.69797e-27
10300 344 0.0015 -0.487717 -1.87124 0 2.85505e-12 -1.4316e-12 0 3.36849e-20 4.84801e-27
6084 203 0.0015 -0.429191 -1.8708 0 -3.88736e-12 4.996e-12 0 2.48474e-20 9.47998e-27
6083 203 0.0015 -0.427374 -1.87166 0 5.46927e-12 -3.59345e-12 0 4.96948e-20 1.18264e-26
6035 202 0.0015 -0.332631 -1.87017 0 8.74992e-14 -9.34367e-14 0 0 1.46101e-28
7999 267 0.0015 -0.23674 -1.87052 0 -1.75699e-12 -1.89279e-12 0 0 9.79897e-28
7998 267 0.0015 -0.234415 -1.8714 0 -6.1241e-13 3.68767e-12 0 0 1.97033e-27
1481 50 0.0015 0.579128 -1.8714 0 -1.52554e-12 -2.95634e-12 0 0 5.49012e-27
3529 118 0.0015 0.665887 -1.87136 0 -1.2157e-12 -1.1735e-12 0 3.14298e-20 2.17842e-27
2650 89 0.0015 -0.6044 -1.86922 0 -1.86157e-12 1.0451e-12 0 1.06521e-20 3.07635e-27
10303 344 0.0015 -0.49619 -1.86852 0 -1.96823e-13 -1.5578e-13 0 1.68424e-20 5.87364e-28
10302 344 0.0015 -0.493366 -1.86943 0 2.98437e-12 -1.3444e-12 0 3.36849e-20 5.88837e-27
6087 203 0.0015 -0.434641 -1.86821 0 -1.22279e-14 -8.79891e-13 0 0 1.50921e-28
6085 203 0.0015 -0.431008 -1.86994 0 1.67134e-12 -3.91795e-12 0 0 3.1519e-27
6086 203 0.0015 -0.432824 -1.86908 0 -9.96138e-13 1.55997e-12 0 0 7.76371e-28
8001 267 0.0015 -0.241392 -1.86876 0 -1.97208e-12 1.42283e-12 0 1.00459e-20 2.48584e-27
8000 267 0.0015 -0.239066 -1.86964 0 3.03195e-12 -4.55779e-13 0 0 3.24772e-27
8012 268 0.0015 -0.171924 -1.86923 0 3.39566e-13 9.26518e-13 0 0 1.77891e-27
10332 345 0.0015 -0.0679644 -1.86909 0 -4.8304e-14 5.22594e-13 0 0 6.67395e-27
1957 66 0.0015 0.0127576 -1.86871 0 8.09792e-14 -9.76374e-13 0 5.20104e-21 6.46138e-28
10269 343 0.0015 0.423451 -1.86924 0 -2.57018e-13 -1.78725e-12 0 0 1.87031e-27
1482 50 0.0015 0.581354 -1.86848 0 7.75221e-14 7.21888e-13 0 0 3.16577e-27
3528 118 0.0015 0.668424 -1.86944 0 1.33625e-12 6.92933e-13 0 1.57149e-20 1.67637e-27
2651 89 0.0015 -0.608121 -1.86636 0 1.06911e-12 -6.61088e-13 0 5.32605e-21 1.10102e-27
10305 344 0.0015 -0.501838 -1.8667 0 3.77778e-12 -2.01206e-12 0 1.68424e-20 7.82049e-27
10304 344 0.0015 -0.499014 -1.86761 0 -2.78852e-12 1.73586e-12 0 1.68424e-20 6.0679e-27
6089 203 0.0015 -0.438274 -1.86649 0 1.6261e-12 -2.82722e-12 0 0 2.67218e-27
6088 203 0.0015 -0.436457 -1.86735 0 5.45629e-13 2.16088e-12 0 0 1.9109e-28
8004 267 0.0015 -0.248369 -1.86612 0 2.64234e-12 3.09381e-12 0 0 7.57316e-28
8003 267 0.0015 -0.246044 -1.867 0 -1.66514e-12 -9.97633e-13 0 1.00459e-20 6.78668e-28
8002 267 0.0015 -0.243718 -1.86788 0 5.61909e-13 -6.87163e-13 0 1.00459e-20 2.31351e-28
8046 269 0.0015 0.152008 -1.86695 0 1.5813e-13 -1.46605e-12 0 7.37441e-21 2.27012e-27
6004 201 0.0015 0.499982 -1.86721 0 -6.91398e-13 -1.74921e-12 0 0 9.57326e-27
3527 118 0.0015 0.670962 -1.86752 0 -1.18866e-12 1.12247e-12 0 0 2.7361e-27
10307 344 0.0015 -0.507486 -1.86489 0 6.4391e-13 -8.48121e-13 0 3.36849e-20 5.54342e-28
10306 344 0.0015 -0.504662 -1.8658 0 -1.38201e-12 9.40423e-13 0 3.36849e-20 1.98041e-27
6090 203 0.0015 -0.440091 -1.86563 0 -1.70313e-12 1.33747e-12 0 0 2.49138e-27
8006 267 0.0015 -0.253021 -1.86436 0 4.92773e-13 3.41149e-12 0 2.00918e-20 3.08894e-28
8005 267 0.0015 -0.250695 -1.86524 0 -1.42253e-12 -4.46065e-12 0 1.00459e-20 4.23913e-28
10333 345 0.0015 -0.0686412 -1.86599 0 -4.63198e-13 2.26337e-12 0 0 2.81726e-27
10203 341 0.0015 0.288506 -1.8653 0 3.26587e-13 -3.02419e-12 0 0 9.22356e-27
4532 152 0.0015 0.364868 -1.86469 0 4.35028e-14 -2.4499e-13 0 0 1.33055e-27
10270 343 0.0015 0.424172 -1.86529 0 5.75967e-13 3.56792e-12 0 0 8.5557e-27
1483 50 0.0015 0.58358 -1.86557 0 -1.53681e-13 -3.98798e-13 0 0 2.56047e-27
3526 118 0.0015 0.673499 -1.86561 0 -1.55708e-12 -4.79855e-12 0 0 9.19409e-27
2652 89 0.0015 -0.611842 -1.86351 0 6.93343e-14 1.00478e-13 0 5.32605e-21 5.15177e-28
10310 344 0.0015 -0.515959 -1.86217 0 1.6351e-12 -1.71645e-12 0 0 5.43677e-27
10309 344 0.0015 -0.513134 -1.86307 0 1.44749e-12 -4.59271e-13 0 0 1.11014e-27
10308 344 0.0015 -0.51031 -1.86398 0 -1.59959e-12 1.19805e-12 0 1.68424e-20 1.49697e-27
6036 202 0.0015 -0.337434 -1.86244 0 -1.52366e-14 -3.00073e-15 0 0 2.40334e-28
8008 267 0.0015 -0.257673 -1.8626 0 -6.67188e-13 1.4996e-12 0 1.00459e-20 4.74409e-28
8007 267 0.0015 -0.255347 -1.86348 0 -2.22563e-14 -1.63759e-12 0 2.00918e-20 1.6133e-28
10334 345 0.0015 -0.0693181 -1.86288 0 1.94098e-13 -1.20494e-12 0 0 6.57885e-28
1958 66 0.0015 0.0122775 -1.86393 0 8.289e-14 -1.09413e-12 0 0 3.42162e-27
1484 50 0.0015 0.585807 -1.86266 0 2.25846e-12 2.94057e-12 0 0 7.60697e-27
3525 118 0.0015 0.676036 -1.86369 0 1.55708e-12 4.79855e-12 0 0 9.19409e-27
2653 89 0.0015 -0.615563 -1.86065 0 -2.08495e-12 1.37903e-12 0 5.32605e-21 5.73996e-27
10312 344 0.0015 -0.521607 -1.86035 0 6.50842e-12 -3.71894e-12 0 0 2.33412e-26
10311 344 0.0015 -0.518783 -1.86126 0 -6.12169e-12 3.97068e-12 0 0 2.20575e-26
8010 267 0.0015 -0.262324 -1.86085 0 2.61093e-13 3.42026e-13 0 0 1.04872e-29
8009 267 0.0015 -0.259998 -1.86172 0 1.20856e-13 -1.24948e-12 0 0 3.28239e-28
8047 269 0.0015 0.151313 -1.86021 0 -1.7903e-13 1.78464e-12 0 3.6872e-21 3.05392e-27
10271 343 0.0015 0.424893 -1.86133 0 -9.52216e-13 -4.98849e-12 0 0 1.44051e-26
3524 118 0.0015 0.678573 -1.86178 0 1.18866e-12 -1.12247e-12 0 0 2.7361e-27
10314 344 0.0015 -0.527255 -1.85854 0 -1.04553e-12 1.38719e-12 0 0 1.11862e-27
10313 344 0.0015 -0.524431 -1.85944 0 -2.32984e-12 1.01582e-12 0 0 6.62542e-27
10335 345 0.0015 -0.0699949 -1.85978 0 -2.39511e-14 7.28843e-13 0 0 3.09423e-28
1959 66 0.0015 0.0117974 -1.85915 0 -7.80973e-14 1.29422e-12 0 5.20104e-21 3.23987e-27
4771 160 0.0015 0.0785585 -1.85825 0 5.63913e-15 -2.18309e-13 0 0 1.21887e-28
10204 341 0.0015 0.287705 -1.85857 0 4.1278e-14 -3.72331e-13 0 3.6872e-21 6.85902e-27
6005 201 0.0015 0.502997 -1.85945 0 1.2019e-12 2.97152e-12 0 5.99535e-21 1.27284e-26
1485 50 0.0015 0.588033 -1.85975 0 -2.04856e-12 -2.80471e-12 0 0 7.03655e-27
3523 118 0.0015 0.681111 -1.85986 0 -1.33625e-12 -6.92933e-13 0 1.57149e-20 1.67637e-27
2654 89 0.0015 -0.619284 -1.8578 0 2.5154e-12 -1.95597e-12 0 1.06521e-20 7.16214e-27
10316 344 0.0015 -0.532903 -1.85672 0 -4.19365e-13 1.22434e-12 0 0 4.97622e-28
10315 344 0.0015 -0.530079 -1.85763 0 1.36965e-12 -1.9652e-12 0 0 1.54612e-27
8013 268 0.0015 -0.167482 -1.85688 0 -2.8693e-13 -7.73472e-13 0 0 1.31664e-27
10336 345 0.0015 -0.0706718 -1.85667 0 1.63055e-13 -1.26434e-12 0 0 1.14025e-27
4533 152 0.0015 0.36352 -1.85607 0 -4.36833e-15 2.21802e-16 0 5.72705e-21 1.94146e-27
10272 343 0.0015 0.425614 -1.85738 0 6.6136e-13 3.09889e-12 0 0 7.56032e-27
1486 50 0.0015 0.59026 -1.85684 0 2.04856e-12 2.80471e-12 0 0 7.03655e-27
3522 118 0.0015 0.683648 -1.85795 0 1.2157e-12 1.1735e-12 0 3.14298e-20 2.17842e-27
3521 118 0.0015 0.686185 -1.85603 0 -1.82271e-12 -1.17091e-12 0 3.14298e-20 2.47866e-27
2655 89 0.0015 -0.623004 -1.85494 0 6.3391e-13 -1.90399e-13 0 1.06521e-20 5.68025e-27
10318 344 0.0015 -0.538552 -1.85491 0 -1.265e-12 -5.21356e-13 0 1.68424e-20 4.39742e-27
10317 344 0.0015 -0.535727 -1.85581 0 -1.01448e-12 2.05076e-13 0 1.68424e-20 8.66179e-28
6037 202 0.0015 -0.342237 -1.85471 0 -1.41172e-13 2.38154e-13 0 0 1.26727e-28
1960 66 0.0015 0.0113172 -1.85437 0 -2.55057e-13 2.03406e-12 0 5.20104e-21 4.42938e-27
3520 118 0.0015 0.688722 -1.85412 0 3.70254e-13 -3.99314e-13 0 1.57149e-20 5.67227e-28
2656 89 0.0015 -0.626725 -1.85209 0 -2.4849e-12 1.60201e-12 0 5.32605e-21 5.85995e-27
10320 344 0.0015 -0.5442 -1.85309 0 -2.90183e-12 4.97564e-13 0 0 7.00116e-27
10319 344 0.0015 -0.541376 -1.854 0 5.07825e-12 -4.91254e-13 0 1.68424e-20 1.05324e-26
10337 345 0.0015 -0.0713486 -1.85356 0 -5.87025e-13 2.52902e-12 0 0 3.02723e-27
8048 269 0.0015 0.150617 -1.85348 0 2.32189e-13 -2.36715e-12 0 0 5.85804e-27
10273 343 0.0015 0.426335 -1.85342 0 -2.36827e-13 -1.00734e-12 0 1.24237e-20 6.34809e-28
1487 50 0.0015 0.592486 -1.85392 0 -2.25846e-12 -2.94057e-12 0 0 7.60697e-27
3519 118 0.0015 0.69126 -1.8522 0 -8.90359e-13 -2.20339e-14 0 0 1.66369e-27
10338 345 0.0015 -0.0720254 -1.85046 0 1.4109e-14 5.86253e-14 0 0 3.95334e-27
10205 341 0.0015 0.286904 -1.85184 0 -3.38839e-13 3.08342e-12 0 3.6872e-21 9.056e-27
6006 201 0.0015 0.506013 -1.85168 0 -1.08832e-13 -1.21147e-13 0 5.99535e-21 5.63483e-27
1488 50 0.0015 0.594712 -1.85101 0 1.53681e-13 3.98798e-13 0 0 2.56047e-27
3518 118 0.0015 0.693797 -1.85028 0 1.20661e-12 5.44547e-13 0 0 1.40823e-27
2657 89 0.0015 -0.630446 -1.84923 0 2.69664e-13 5.84168e-15 0 0 3.1152e-27
1961 66 0.0015 0.0108371 -1.84959 0 2.86314e-13 -2.52228e-12 0 1.04021e-20 5.0661e-27
4772 160 0.0015 0.0782973 -1.84905 0 -9.89494e-15 4.10851e-13 0 0 2.16684e-28
10274 343 0.0015 0.427056 -1.84946 0 1.80176e-13 8.12252e-13 0 2.48474e-20 3.88064e-28
1489 50 0.0015 0.596939 -1.8481 0 -7.75221e-14 -7.21888e-13 0 0 3.16577e-27
3517 118 0.0015 0.696334 -1.84837 0 -3.28042e-13 -3.17412e-13 0 0 1.59801e-28
2658 89 0.0015 -0.634167 -1.84638 0 4.7829e-13 -5.17875e-13 0 1.59781e-20 1.36769e-27
6038 202 0.0015 -0.34704 -1.84697 0 -2.62151e-14 5.63968e-14 0 0 4.80342e-29
10339 345 0.0015 -0.0727023 -1.84735 0 9.98979e-13 -3.76376e-12 0 0 6.99682e-27
8049 269 0.0015 0.149922 -1.84674 0 -2.69359e-13 2.76006e-12 0 0 7.35758e-27
6541 219 0.0015 0.213251 -1.84656 0 -2.44427e-14 2.21572e-13 0 0 9.80281e-29
4534 152 0.0015 0.362172 -1.84745 0 -1.60541e-13 1.05162e-12 0 1.14541e-20 1.42016e-27
3516 118 0.0015 0.698871 -1.84645 0 6.84738e-13 8.96344e-13 0 0 5.46222e-28
8014 268 0.0015 -0.163039 -1.84452 0 -6.48675e-14 -1.91356e-13 0 1.90242e-21 1.31085e-27
10340 345 0.0015 -0.0733791 -1.84424 0 -1.30732e-12 4.60076e-12 0 0 1.00626e-26
1962 66 0.0015 0.010357 -1.84481 0 -2.27646e-13 2.12143e-12 0 1.04021e-20 3.33466e-27
10206 341 0.0015 0.286103 -1.84511 0 1.72489e-13 -1.67456e-12 0 3.6872e-21 4.70501e-27
10275 343 0.0015 0.427777 -1.84551 0 -4.79693e-14 4.01511e-15 0 3.72711e-20 4.38799e-28
1490 50 0.0015 0.599165 -1.84519 0 1.52554e-12 2.95634e-12 0 0 5.49012e-27
3515 118 0.0015 0.701409 -1.84454 0 -6.55609e-13 -8.66265e-13 0 0 5.16719e-28
2659 89 0.0015 -0.637888 -1.84352 0 6.15854e-13 -3.7115e-13 0 1.59781e-20 3.44915e-28
6007 201 0.0015 0.509028 -1.84391 0 -5.02619e-13 -1.37591e-12 0 5.99535e-21 2.87769e-27
1491 50 0.0015 0.601391 -1.84228 0 -8.17667e-13 -2.14123e-12 0 0 3.34167e-27
3514 118 0.0015 0.703946 -1.84262 0 -9.52508e-14 4.45455e-13 0 1.57149e-20 1.61679e-28
2660 89 0.0015 -0.641609 -1.84066 0 -4.00638e-13 1.04538e-13 0 1.59781e-20 2.39116e-28
10341 345 0.0015 -0.074056 -1.84114 0 1.65783e-12 -6.60047e-12 0 0 2.21769e-26
1963 66 0.0015 0.00987681 -1.84004 0 2.41861e-13 -2.25902e-12 0 1.04021e-20 3.63053e-27
10276 343 0.0015 0.428498 -1.84155 0 4.79693e-14 -4.01511e-15 0 3.72711e-20 4.38799e-28
3513 118 0.0015 0.706483 -1.84071 0 1.91212e-13 -5.38338e-13 0 1.57149e-20 1.481e-28
6039 202 0.0015 -0.351842 -1.83924 0 -9.56774e-14 9.07767e-14 0 0 1.97638e-28
10342 345 0.0015 -0.0747328 -1.83803 0 -1.56719e-12 7.04205e-12 0 0 2.40786e-26
4773 160 0.0015 0.0780361 -1.83985 0 8.89184e-15 -3.88808e-13 0 0 1.93304e-28
8050 269 0.0015 0.149226 -1.84 0 2.3047e-14 -4.88202e-13 0 0 3.71358e-27
6542 219 0.0015 0.21269 -1.83947 0 -4.11286e-14 8.08695e-13 0 0 2.20201e-27
10207 341 0.0015 0.285302 -1.83839 0 -5.12724e-14 6.43371e-13 0 0 5.6844e-28
4535 152 0.0015 0.360823 -1.83883 0 -9.89772e-14 6.50951e-13 0 1.14541e-20 3.32848e-27
1492 50 0.0015 0.603618 -1.83936 0 -1.13999e-12 -6.56044e-13 0 0 2.98292e-27
3512 118 0.0015 0.70902 -1.83879 0 -7.27057e-13 -1.38272e-13 0 1.57149e-20 1.04563e-27
2661 89 0.0015 -0.64533 -1.83781 0 2.37109e-13 2.18514e-13 0 0 1.55416e-29
10277 343 0.0015 0.429219 -1.8376 0 -1.80176e-13 -8.12252e-13 0 2.48474e-20 3.88064e-28
6008 201 0.0015 0.512043 -1.83614 0 9.73165e-14 2.14242e-13 0 0 5.45756e-28
1493 50 0.0015 0.605844 -1.83645 0 2.84945e-12 3.08024e-12 0 0 9.27051e-27
3511 118 0.0015 0.711558 -1.83688 0 8.58864e-13 5.65228e-13 0 0 9.29635e-28
2662 89 0.0015 -0.649051 -1.83495 0 -6.70309e-14 -3.78274e-13 0 0 1.12761e-28
10343 345 0.0015 -0.0754097 -1.83493 0 -2.0579e-13 5.17572e-13 0 0 1.7034e-26
1964 66 0.0015 0.00939668 -1.83526 0 -1.3688e-13 1.18067e-12 0 5.20104e-21 1.14634e-27
2663 89 0.0015 -0.652772 -1.8321 0 5.14293e-13 -1.86062e-13 0 0 9.29609e-28
10171 340 0.0015 -0.234195 -1.83312 0 2.83842e-13 -4.03671e-13 0 6.39056e-21 5.28816e-28
8015 268 0.0015 -0.158597 -1.83216 0 3.93129e-13 1.08062e-12 0 1.90242e-21 2.43967e-27
8051 269 0.0015 0.14853 -1.83326 0 1.20985e-13 -8.29071e-13 0 0 9.98864e-28
6543 219 0.0015 0.212128 -1.83239 0 1.20337e-13 -1.86509e-12 0 0 3.48586e-27
10278 343 0.0015 0.429939 -1.83364 0 2.36827e-13 1.00734e-12 0 1.24237e-20 6.34809e-28
1494 50 0.0015 0.60807 -1.83354 0 -2.79483e-12 -3.04344e-12 0 0 9.06431e-27
6040 202 0.0015 -0.356645 -1.83151 0 -2.16409e-13 4.37931e-13 0 0 1.5331e-27
10344 345 0.0015 -0.0760865 -1.83182 0 1.48013e-12 -6.34087e-12 0 1.57149e-20 1.8739e-26
1965 66 0.0015 0.00891654 -1.83048 0 7.5203e-14 -5.88351e-13 0 0 2.357e-28
4774 160 0.0015 0.0777749 -1.83066 0 -8.50036e-15 3.24828e-13 0 0 1.40788e-28
10208 341 0.0015 0.284501 -1.83166 0 8.44136e-14 -9.69672e-13 0 0 9.01086e-28
4536 152 0.0015 0.359475 -1.83021 0 2.3669e-13 -1.63278e-12 0 5.72705e-21 3.63759e-27
1495 50 0.0015 0.610297 -1.83063 0 1.30811e-12 1.45302e-12 0 0 2.70918e-27
2664 89 0.0015 -0.656493 -1.82924 0 -5.41622e-13 4.44632e-13 0 0 8.42234e-28
10345 345 0.0015 -0.0767633 -1.82871 0 -5.44592e-13 2.2812e-12 0 1.57149e-20 9.28266e-27
10279 343 0.0015 0.43066 -1.82968 0 -6.6136e-13 -3.09889e-12 0 0 7.56032e-27
6009 201 0.0015 0.515058 -1.82837 0 3.64289e-13 1.01078e-12 0 0 1.84524e-27
2665 89 0.0015 -0.660213 -1.82639 0 -1.66787e-12 1.27952e-12 0 0 5.24681e-27
10172 340 0.0015 -0.238704 -1.82673 0 -3.91877e-13 5.41302e-13 0 6.39056e-21 5.95126e-28
8052 269 0.0015 0.147835 -1.82652 0 2.16503e-13 -2.37733e-12 0 0 1.18373e-26
1496 50 0.0015 0.612523 -1.82772 0 9.75043e-13 1.02447e-12 0 6.81478e-21 3.29589e-27
10346 345 0.0015 -0.0774402 -1.82561 0 -2.65247e-13 1.38937e-12 0 1.57149e-20 8.97315e-28
1966 66 0.0015 0.0084364 -1.8257 0 -6.2679e-14 4.73302e-13 0 0 1.55502e-28
6544 219 0.0015 0.211567 -1.8253 0 -1.73995e-14 3.54637e-13 0 0 1.83994e-27
10209 341 0.0015 0.2837 -1.82493 0 7.84785e-15 2.17239e-13 0 0 4.43618e-28
10280 343 0.0015 0.431381 -1.82573 0 9.52216e-13 4.98849e-12 0 0 1.44051e-26
1497 50 0.0015 0.614749 -1.8248 0 -7.21867e-13 -8.15553e-13 0 1.36296e-20 3.63262e-27
2666 89 0.0015 -0.663934 -1.82353 0 2.34061e-12 -1.90377e-12 0 0 6.5672e-27
6041 202 0.0015 -0.361448 -1.82377 0 6.91171e-13 -1.15166e-12 0 0 2.30226e-27
10347 345 0.0015 -0.078117 -1.8225 0 -3.69067e-13 9.84865e-13 0 0 2.76066e-27
2667 89 0.0015 -0.667655 -1.82068 0 3.08438e-13 -2.7199e-13 0 5.32605e-21 3.96621e-27
10173 340 0.0015 -0.243212 -1.82034 0 -3.94382e-13 6.02847e-13 0 6.39056e-21 1.80457e-27
1967 66 0.0015 0.00795626 -1.82092 0 1.45046e-13 -1.37733e-12 0 0 1.92171e-27
4775 160 0.0015 0.0775136 -1.82146 0 -4.54322e-15 2.15788e-13 0 0 3.45525e-28
4537 152 0.0015 0.358127 -1.82159 0 5.92625e-14 -2.10463e-13 0 0 2.2232e-27
10281 343 0.0015 0.432102 -1.82177 0 -5.75967e-13 -3.56792e-12 0 0 8.5557e-27
6010 201 0.0015 0.518074 -1.8206 0 -8.95814e-13 -2.33226e-12 0 0 7.89355e-27
1498 50 0.0015 0.616976 -1.82189 0 -2.83334e-12 -2.89203e-12 0 2.04443e-20 1.18348e-26
8016 268 0.0015 -0.154154 -1.81981 0 -3.52602e-13 -9.64285e-13 0 1.90242e-21 2.0343e-27
10348 345 0.0015 -0.0787939 -1.81939 0 6.07454e-13 -1.28389e-12 0 0 2.49123e-27
8053 269 0.0015 0.147139 -1.81978 0 -4.01491e-13 4.10565e-12 0 0 1.67495e-26
6545 219 0.0015 0.211005 -1.81821 0 1.06809e-14 -4.28811e-14 0 0 1.0028e-27
10210 341 0.0015 0.282899 -1.8182 0 -5.07613e-14 9.6302e-14 0 0 1.15799e-28
1499 50 0.0015 0.619202 -1.81898 0 4.10372e-12 4.15223e-12 0 1.36296e-20 1.74784e-26
2668 89 0.0015 -0.671376 -1.81782 0 -2.0124e-12 1.75406e-12 0 1.06521e-20 4.64512e-27
6042 202 0.0015 -0.366251 -1.81604 0 -6.19619e-13 9.53839e-13 0 0 1.64217e-27
10349 345 0.0015 -0.0794707 -1.81629 0 -2.36661e-13 -2.873e-13 0 0 6.76564e-29
1968 66 0.0015 0.00747613 -1.81614 0 -1.50279e-13 1.53379e-12 0 0 2.03839e-27
10282 343 0.0015 0.432823 -1.81781 0 2.57018e-13 1.78725e-12 0 0 1.87031e-27
1500 50 0.0015 0.621428 -1.81607 0 -1.72822e-12 -1.76233e-12 0 6.81478e-21 6.11032e-27
2669 89 0.0015 -0.675097 -1.81497 0 1.26693e-12 -1.11931e-12 0 1.06521e-20 2.26845e-27
5941 199 0.0015 0.740778 -1.81551 0 -1.36294e-13 -5.92621e-13 0 0 9.86474e-28
2670 89 0.0015 -0.678818 -1.81211 0 -3.37777e-13 2.8898e-13 0 5.32605e-21 2.56709e-28
10174 340 0.0015 -0.24772 -1.81396 0 3.2024e-13 -4.8529e-13 0 0 1.95174e-27
10350 345 0.0015 -0.0801475 -1.81318 0 1.03772e-13 -2.14807e-14 0 0 1.63993e-30
4776 160 0.0015 0.0772524 -1.81226 0 2.5936e-15 -2.14654e-13 0 0 3.4631e-28
8054 269 0.0015 0.146443 -1.81304 0 -4.10005e-14 9.86216e-14 0 3.6872e-21 1.05206e-26
4538 152 0.0015 0.356779 -1.81297 0 -1.24893e-13 6.6665e-13 0 0 1.48711e-27
10283 343 0.0015 0.433544 -1.81386 0 -5.97523e-13 -2.8574e-12 0 0 5.88068e-27
6011 201 0.0015 0.521089 -1.81283 0 9.85419e-13 2.53524e-12 0 0 8.89888e-27
1969 66 0.0015 0.00699599 -1.81136 0 -1.58667e-13 1.58506e-12 0 0 5.24951e-27
6546 219 0.0015 0.210443 -1.81113 0 -1.63301e-13 1.87391e-12 0 3.51396e-21 4.17417e-27
10211 341 0.0015 0.282098 -1.81148 0 1.70058e-13 -1.0255e-12 0 3.6872e-21 2.53835e-27
6043 202 0.0015 -0.371054 -1.8083 0 6.23214e-13 -9.36264e-13 0 0 1.60266e-27
10284 343 0.0015 0.434265 -1.8099 0 8.70759e-13 3.62114e-12 0 0 7.93673e-27
10175 340 0.0015 -0.252228 -1.80757 0 7.10167e-13 -1.01746e-12 0 0 2.08053e-27
8017 268 0.0015 -0.149712 -1.80745 0 2.25788e-13 6.29682e-13 0 0 8.38176e-28
1970 66 0.0015 0.00651585 -1.80658 0 3.07808e-13 -3.27301e-12 0 5.20104e-21 7.46097e-27
8055 269 0.0015 0.145748 -1.8063 0 4.76859e-13 -4.17664e-12 0 7.37441e-21 1.71682e-26
5942 199 0.0015 0.743061 -1.80618 0 -3.85393e-14 -5.2484e-14 0 2.60052e-21 2.17773e-27
6547 219 0.0015 0.209882 -1.80404 0 2.64677e-13 -3.11471e-12 0 7.02791e-21 9.81696e-27
10212 341 0.0015 0.281297 -1.80475 0 -4.22547e-13 3.13113e-12 0 7.37441e-21 1.00676e-26
4539 152 0.0015 0.35543 -1.80435 0 -2.7116e-14 2.51359e-13 0 0 8.08265e-29