ITEM: TIMESTEP
28810
ITEM: NUMBER OF ATOMS
10500
ITEM: BOX BOUNDS pp pp pp
-1.0249999999999999e+00 1.0249999999999999e+00
-2.0000000000000000e+00 2.0000000000000000e+00
-5.0000000000000003e-02 5.0000000000000003e-02
ITEM: ATOMS id type radius x y z fx fy fz c_bendingE c_stretchingE
10321 345 0.0015 -0.0605191 -1.90326 0 7.40202e-13 -3.25473e-12 0 0 9.8379e-27
6031 202 0.0015 -0.31342 -1.90111 0 1.18055e-12 -1.89487e-12 0 0 1.26041e-26
10322 345 0.0015 -0.061196 -1.90016 0 -1.41511e-12 6.3671e-12 0 0 1.87947e-26
8041 269 0.0015 0.155487 -1.90065 0 -1.44842e-14 2.70028e-13 0 0 1.37279e-28
10261 343 0.0015 0.417684 -1.90089 0 2.13244e-13 1.65827e-12 0 0 3.11393e-27
1471 50 0.0015 0.556864 -1.90052 0 -2.21188e-13 3.22572e-13 0 0 1.51354e-29
10323 345 0.0015 -0.0618728 -1.89705 0 1.34101e-12 -6.38904e-12 0 0 1.8828e-26
1951 66 0.0015 0.0156385 -1.89738 0 2.05141e-13 -1.98207e-12 0 0 5.29738e-27
10262 343 0.0015 0.418405 -1.89694 0 -5.06437e-13 -4.23075e-12 0 1.24237e-20 1.05688e-26
1472 50 0.0015 0.559091 -1.8976 0 1.83429e-12 6.85871e-13 0 0 3.24448e-27
2641 89 0.0015 -0.570912 -1.89491 0 -1.78528e-14 -3.55176e-13 0 0 5.31903e-29
1473 50 0.0015 0.561317 -1.89469 0 -1.87047e-12 -7.5953e-13 0 0 3.23109e-27
2642 89 0.0015 -0.574633 -1.89206 0 -1.2493e-12 1.95701e-12 0 0 5.16313e-27
6032 202 0.0015 -0.318223 -1.89337 0 -2.1602e-12 3.48149e-12 0 0 2.13969e-26
10324 345 0.0015 -0.0625496 -1.89394 0 -1.38758e-12 6.37374e-12 0 0 1.87997e-26
1952 66 0.0015 0.0151583 -1.8926 0 -2.08161e-13 1.97294e-12 0 0 5.29748e-27
8042 269 0.0015 0.154791 -1.89391 0 -1.37035e-13 9.64794e-13 0 0 3.04889e-27
10263 343 0.0015 0.419126 -1.89298 0 1.52123e-13 2.40461e-12 0 2.48474e-20 7.49533e-27
3540 118 0.0015 0.637977 -1.89243 0 -1.69028e-12 -9.95836e-13 0 0 3.35459e-27
6061 203 0.0015 -0.387409 -1.89062 0 -4.30738e-12 7.50563e-14 0 0 8.5989e-27
10325 345 0.0015 -0.0632265 -1.89084 0 7.08043e-13 -2.78799e-12 0 0 9.01055e-27
10231 342 0.0015 0.215 -1.89 0 -3.31993e-13 0 0 0 2.1143e-29
10232 342 0.0015 0.21569 -1.89 0 4.34431e-13 0 0 0 2.31533e-29
10233 342 0.0015 0.216379 -1.89 0 5.07539e-13 0 0 0 7.31844e-29
10234 342 0.0015 0.217069 -1.89 0 4.3443e-13 0 0 0 2.80048e-28
10235 342 0.0015 0.217759 -1.89 0 -3.54988e-12 0 0 0 1.41144e-27
10236 342 0.0015 0.218448 -1.89 0 4.70851e-12 0 0 0 2.13252e-27
10237 342 0.0015 0.219138 -1.89 0 -5.46915e-12 0 0 0 2.97354e-27
10238 342 0.0015 0.219828 -1.89 0 6.846e-12 0 0 0 4.49836e-27
10239 342 0.0015 0.220517 -1.89 0 -7.17221e-12 0 0 0 4.92666e-27
10240 342 0.0015 0.221207 -1.89 0 7.46153e-12 0 0 0 5.34017e-27
10241 342 0.0015 0.221897 -1.89 0 -7.93219e-12 0 0 0 6.0307e-27
10242 342 0.0015 0.222586 -1.89 0 9.70724e-12 0 0 0 9.26541e-27
10243 342 0.0015 0.223276 -1.89 0 -1.12276e-11 0 0 0 1.20769e-26
10244 342 0.0015 0.223966 -1.89 0 1.03221e-11 0 0 0 1.02758e-26
10245 342 0.0015 0.224655 -1.89 0 -9.85212e-12 0 0 0 9.31079e-27
10246 342 0.0015 0.225345 -1.89 0 9.85212e-12 0 0 0 9.31079e-27
10247 342 0.0015 0.226034 -1.89 0 -1.03221e-11 0 0 0 1.02758e-26
10248 342 0.0015 0.226724 -1.89 0 1.12276e-11 0 0 0 1.20769e-26
10249 342 0.0015 0.227414 -1.89 0 -9.70724e-12 0 0 0 9.26541e-27
10250 342 0.0015 0.228103 -1.89 0 7.93219e-12 0 0 0 6.0307e-27
10251 342 0.0015 0.228793 -1.89 0 -7.46153e-12 0 0 0 5.34017e-27
10252 342 0.0015 0.229483 -1.89 0 7.17221e-12 0 0 0 4.92666e-27
10253 342 0.0015 0.230172 -1.89 0 -6.846e-12 0 0 0 4.49836e-27
10254 342 0.0015 0.230862 -1.89 0 5.46915e-12 0 0 0 2.97354e-27
10255 342 0.0015 0.231552 -1.89 0 -4.70851e-12 0 0 0 2.13252e-27
10256 342 0.0015 0.232241 -1.89 0 3.54988e-12 0 0 0 1.41144e-27
10257 342 0.0015 0.232931 -1.89 0 -4.3443e-13 0 0 0 2.80048e-28
10258 342 0.0015 0.233621 -1.89 0 -5.07539e-13 0 0 0 7.31844e-29
10259 342 0.0015 0.23431 -1.89 0 -4.34431e-13 0 0 0 2.31533e-29
10260 342 0.0015 0.235 -1.89 0 3.31993e-13 0 0 0 2.1143e-29
6001 201 0.0015 0.490936 -1.89052 0 3.52262e-13 9.71235e-13 0 0 2.46951e-27
1474 50 0.0015 0.563543 -1.89178 0 -2.06807e-13 -9.96496e-13 0 0 7.82752e-28
3539 118 0.0015 0.640514 -1.89051 0 1.12889e-12 2.83148e-13 0 0 4.03451e-27
2643 89 0.0015 -0.578354 -1.8892 0 1.42537e-12 -1.94791e-12 0 0 5.25721e-27
6063 203 0.0015 -0.391043 -1.8889 0 -9.30143e-12 -2.00195e-12 0 4.96948e-20 1.73731e-26
6064 203 0.0015 -0.392859 -1.88804 0 4.81039e-12 5.32247e-13 0 4.96948e-20 5.09221e-27
6062 203 0.0015 -0.389226 -1.88976 0 1.02381e-11 9.44221e-13 0 2.48474e-20 2.2126e-26
10264 343 0.0015 0.419847 -1.88903 0 5.07511e-13 2.15771e-12 0 3.72711e-20 4.61347e-27
1475 50 0.0015 0.56577 -1.88887 0 7.66317e-13 1.45376e-12 0 0 1.3454e-27
3538 118 0.0015 0.643052 -1.8886 0 2.07891e-12 1.54513e-12 0 0 3.27028e-27
2644 89 0.0015 -0.582074 -1.88635 0 -6.05918e-13 5.39369e-13 0 5.32605e-21 4.38563e-28
6066 203 0.0015 -0.396492 -1.88631 0 2.75205e-12 -6.87195e-12 0 2.48474e-20 8.35491e-27
6065 203 0.0015 -0.394676 -1.88717 0 -3.3429e-12 3.52265e-12 0 2.48474e-20 6.39574e-27
7981 267 0.0015 -0.194876 -1.88635 0 -1.08937e-13 3.85121e-13 0 0 3.91643e-29
10326 345 0.0015 -0.0639033 -1.88773 0 1.7817e-12 -7.53157e-12 0 0 4.88779e-26
1953 66 0.0015 0.0146782 -1.88782 0 -9.62424e-14 8.79445e-13 0 5.20104e-21 1.02362e-27
8043 269 0.0015 0.154095 -1.88717 0 3.25046e-13 -2.77654e-12 0 0 7.44095e-27
3537 118 0.0015 0.645589 -1.88668 0 -1.41437e-12 -1.94816e-13 0 1.57149e-20 2.78257e-27
6068 203 0.0015 -0.400126 -1.88459 0 3.34641e-12 1.45012e-12 0 2.48474e-20 3.31394e-27
6067 203 0.0015 -0.398309 -1.88545 0 -5.86848e-13 4.27306e-12 0 2.48474e-20 3.20604e-27
6033 202 0.0015 -0.323025 -1.88564 0 1.23193e-12 -2.02224e-12 0 0 9.43297e-27
7983 267 0.0015 -0.199527 -1.8846 0 -2.58541e-12 2.04369e-12 0 1.00459e-20 3.74464e-27
7982 267 0.0015 -0.197202 -1.88548 0 1.78904e-12 -1.77868e-12 0 1.00459e-20 2.98293e-27
10327 345 0.0015 -0.0645802 -1.88463 0 -3.26735e-12 1.22194e-11 0 1.57149e-20 7.26886e-26
10265 343 0.0015 0.420568 -1.88507 0 -7.94426e-13 -4.75717e-12 0 2.48474e-20 1.33257e-26
1476 50 0.0015 0.567996 -1.88596 0 -9.44468e-13 -2.18836e-12 0 0 3.06656e-27
3536 118 0.0015 0.648126 -1.88476 0 4.60938e-13 -3.52774e-13 0 1.57149e-20 5.33695e-28
2645 89 0.0015 -0.585795 -1.88349 0 1.51915e-12 -8.42024e-13 0 5.32605e-21 2.31059e-27
6071 203 0.0015 -0.405575 -1.882 0 -6.01271e-13 6.99086e-12 0 0 3.63185e-27
6070 203 0.0015 -0.403759 -1.88287 0 3.60051e-12 -3.35054e-12 0 0 7.08461e-27
6069 203 0.0015 -0.401942 -1.88373 0 -7.27284e-12 -2.03273e-12 0 0 9.2634e-27
7985 267 0.0015 -0.204179 -1.88284 0 -6.72246e-13 -7.93013e-13 0 1.00459e-20 6.62054e-28
7984 267 0.0015 -0.201853 -1.88372 0 6.18813e-13 -5.92384e-15 0 2.00918e-20 9.70712e-28
1954 66 0.0015 0.0141981 -1.88304 0 2.05042e-13 -1.69082e-12 0 5.20104e-21 1.9359e-27
6002 201 0.0015 0.493952 -1.88275 0 -8.19363e-13 -2.2707e-12 0 0 6.88048e-27
1477 50 0.0015 0.570222 -1.88304 0 5.04372e-13 2.16106e-12 0 0 2.71344e-27
3535 118 0.0015 0.650663 -1.88285 0 -1.99091e-13 -3.88717e-13 0 1.57149e-20 3.87684e-28
2646 89 0.0015 -0.589516 -1.88064 0 -1.23384e-12 7.61076e-13 0 1.06521e-20 2.06997e-27
6073 203 0.0015 -0.409209 -1.88028 0 -5.44286e-12 -1.43062e-12 0 0 7.34642e-27
6072 203 0.0015 -0.407392 -1.88114 0 1.84776e-12 -2.80569e-12 0 0 2.81778e-27
7988 267 0.0015 -0.211156 -1.8802 0 1.41546e-12 1.19774e-12 0 2.00918e-20 3.11271e-28
7987 267 0.0015 -0.208831 -1.88108 0 -2.83368e-12 4.04041e-13 0 1.00459e-20 3.56976e-27
7986 267 0.0015 -0.206505 -1.88196 0 3.04142e-12 -5.42355e-13 0 1.00459e-20 3.8126e-27
8011 268 0.0015 -0.176367 -1.88159 0 -5.09481e-13 -1.41696e-12 0 0 8.26987e-27
10328 345 0.0015 -0.065257 -1.88152 0 1.0297e-12 -1.54697e-12 0 1.57149e-20 3.45309e-26
8044 269 0.0015 0.1534 -1.88043 0 -3.85574e-13 3.53134e-12 0 0 1.20635e-26
10266 343 0.0015 0.421289 -1.88111 0 9.94707e-13 6.47781e-12 0 1.24237e-20 2.44775e-26
1478 50 0.0015 0.572449 -1.88013 0 1.68521e-12 4.95345e-13 0 0 3.78167e-27
3534 118 0.0015 0.653201 -1.88093 0 4.32978e-13 1.40399e-12 0 1.57149e-20 1.82746e-27
10292 344 0.0015 -0.465124 -1.8785 0 1.32766e-12 -1.05711e-12 0 0 1.04554e-27
10291 344 0.0015 -0.4623 -1.87941 0 -8.19793e-13 2.62088e-13 0 0 6.1037e-28
6074 203 0.0015 -0.411025 -1.87942 0 9.85553e-12 -9.41493e-13 0 0 2.55622e-26
6075 203 0.0015 -0.412842 -1.87856 0 -3.54691e-12 1.43529e-12 0 0 2.06409e-26
7990 267 0.0015 -0.215808 -1.87844 0 2.46108e-12 1.00865e-12 0 1.00459e-20 1.51603e-27
7989 267 0.0015 -0.213482 -1.87932 0 -2.31386e-12 -1.42197e-12 0 2.00918e-20 1.34292e-27
10329 345 0.0015 -0.0659339 -1.87841 0 3.84816e-13 -3.36068e-12 0 1.57149e-20 1.06479e-26
1955 66 0.0015 0.0137179 -1.87827 0 -1.53129e-13 9.09176e-13 0 5.20104e-21 9.23908e-28
10201 341 0.0015 0.290108 -1.87875 0 -1.06704e-13 8.12911e-13 0 3.6872e-21 1.26484e-27
3533 118 0.0015 0.655738 -1.87902 0 -1.89412e-12 -3.08558e-12 0 1.57149e-20 5.14135e-27
2647 89 0.0015 -0.593237 -1.87778 0 6.43574e-13 -6.22902e-13 0 5.32605e-21 6.75551e-28
10294 344 0.0015 -0.470773 -1.87669 0 5.01898e-12 -2.88107e-12 0 0 1.32923e-26
10293 344 0.0015 -0.467948 -1.87759 0 -2.66824e-12 2.53602e-12 0 0 5.9599e-27
6077 203 0.0015 -0.416475 -1.87683 0 7.36932e-13 7.71108e-12 0 2.48474e-20 1.28152e-26
6076 203 0.0015 -0.414658 -1.87769 0 -4.74802e-12 -1.28042e-12 0 0 3.91364e-27
6034 202 0.0015 -0.327828 -1.87791 0 -2.98114e-13 5.20218e-13 0 0 6.63567e-28
7992 267 0.0015 -0.22046 -1.87668 0 -1.02107e-12 -6.59188e-13 0 2.00918e-20 6.76526e-28
7991 267 0.0015 -0.218134 -1.87756 0 -9.44305e-13 -1.73477e-13 0 1.00459e-20 2.74321e-28
10267 343 0.0015 0.42201 -1.87716 0 -8.70839e-13 -5.84529e-12 0 0 2.09111e-26
1479 50 0.0015 0.574675 -1.87722 0 -2.8557e-12 -2.33762e-12 0 0 6.57889e-27
3532 118 0.0015 0.658275 -1.8771 0 -1.97019e-12 5.11964e-13 0 1.57149e-20 1.24855e-26
2648 89 0.0015 -0.596958 -1.87493 0 -2.26765e-12 2.11015e-12 0 1.06521e-20 8.07334e-27
10296 344 0.0015 -0.476421 -1.87487 0 1.13219e-12 2.18039e-12 0 0 2.44402e-27
10295 344 0.0015 -0.473597 -1.87578 0 -4.47231e-12 7.13415e-13 0 0 9.39599e-27
6080 203 0.0015 -0.421925 -1.87425 0 -4.56881e-12 -6.94703e-12 0 4.96948e-20 4.00073e-28
6079 203 0.0015 -0.420108 -1.87511 0 2.97667e-12 1.06972e-11 0 7.45423e-20 4.19026e-27
6078 203 0.0015 -0.418291 -1.87597 0 1.83191e-12 -1.26469e-11 0 4.96948e-20 1.48898e-26
7995 267 0.0015 -0.227437 -1.87404 0 -1.71801e-12 -8.49096e-13 0 2.00918e-20 2.42185e-27
7994 267 0.0015 -0.225111 -1.87492 0 2.2321e-12 7.03134e-13 0 2.00918e-20 2.2511e-27
7993 267 0.0015 -0.222785 -1.8758 0 9.81665e-13 -2.31892e-14 0 2.00918e-20 6.38008e-28
10330 345 0.0015 -0.0666107 -1.87531 0 6.95559e-13 -2.7598e-12 0 0 6.63694e-27
6003 201 0.0015 0.496967 -1.87498 0 5.21791e-13 1.44304e-12 0 0 4.4656e-27
1480 50 0.0015 0.576901 -1.87431 0 2.00886e-12 1.58248e-12 0 6.81478e-21 3.59408e-27
3531 118 0.0015 0.660812 -1.87519 0 6.0574e-12 2.90261e-12 0 1.57149e-20 1.91472e-26
2649 89 0.0015 -0.600679 -1.87207 0 3.76268e-12 -3.35626e-12 0 5.32605e-21 1.65095e-26
10299 344 0.0015 -0.484893 -1.87215 0 9.51154e-13 -2.5928e-12 0 1.68424e-20 1.57588e-27
10298 344 0.0015 -0.482069 -1.87306 0 -2.24411e-12 3.81778e-12 0 0 4.66544e-27
10297 344 0.0015 -0.479245 -1.87396 0 1.88603e-12 -3.82385e-12 0 0 4.01476e-27
6082 203 0.0015 -0.425558 -1.87252 0 -1.20051e-12 -9.66957e-12 0 2.48474e-20 3.30961e-27
6081 203 0.0015 -0.423741 -1.87338 0 1.03285e-12 6.63189e-12 0 2.48474e-20 3.09592e-27
7997 267 0.0015 -0.232089 -1.87228 0 3.96323e-14 4.0211e-13 0 2.00918e-20 6.98283e-28
7996 267 0.0015 -0.229763 -1.87316 0 -1.01731e-12 5.7471e-13 0 3.01377e-20 4.69194e-28
10331 345 0.0015 -0.0672875 -1.8722 0 -7.3614e-13 3.26889e-12 0 0 6.95715e-27
1956 66 0.0015 0.0132378 -1.87349 0 1.03093e-13 -1.08391e-13 0 5.20104e-21 1.23779e-29
8045 269 0.0015 0.152704 -1.87369 0 5.33165e-13 -5.09127e-12 0 0 2.58323e-26
10202 341 0.0015 0.289307 -1.87202 0 1.13124e-14 1.98501e-13 0 3.6872e-21 3.20588e-27
4531 152 0.0015 0.366216 -1.8733 0 9.66353e-14 -6.39909e-13 0 5.72705e-21 1.01486e-27
10268 343 0.0015 0.422731 -1.8732 0 1.41856e-14 7.96739e-13 0 0 7.27784e-27
3530 118 0.0015 0.66335 -1.87327 0 -1.83569e-12 -6.49163e-13 0 1.57149e-20 1.20422e-26
10301 344 0.0015 -0.490541 -1.87033 0 2.79803e-13 2.18292e-13 0 5.89485e-20 4.241e-29
10300 344 0.0015 -0.487717 -1.87124 0 -1.26546e-13 7.14108e-13 0 4.21061e-20 1.10169e-28
6084 203 0.0015 -0.429191 -1.8708 0 -1.1712e-12 -4.15897e-12 0 2.48474e-20 2.50864e-28
6083 203 0.0015 -0.427374 -1.87166 0 3.34133e-12 1.03307e-11 0 2.48474e-20 5.56177e-28
6035 202 0.0015 -0.332631 -1.87017 0 8.01816e-13 -1.28724e-12 0 0 5.12602e-27
7999 267 0.0015 -0.23674 -1.87052 0 7.58858e-13 1.08721e-12 0 0 6.41238e-28
7998 267 0.0015 -0.234415 -1.8714 0 -3.88595e-13 -8.50526e-13 0 1.00459e-20 8.69895e-28
1481 50 0.0015 0.579128 -1.8714 0 -4.18904e-13 4.7938e-13 0 6.81478e-21 1.38262e-27
3529 118 0.0015 0.665887 -1.87136 0 -4.19147e-12 -3.29378e-12 0 1.57149e-20 1.48883e-26
2650 89 0.0015 -0.6044 -1.86922 0 -2.08697e-12 1.88846e-12 0 5.32605e-21 9.09789e-27
10303 344 0.0015 -0.49619 -1.86852 0 -7.78186e-12 1.46603e-12 0 3.36849e-20 2.84207e-26
10302 344 0.0015 -0.493366 -1.86943 0 2.29245e-12 -5.7074e-13 0 5.89485e-20 5.53744e-27
6087 203 0.0015 -0.434641 -1.86821 0 4.0252e-12 6.22248e-13 0 0 6.1175e-27
6085 203 0.0015 -0.431008 -1.86994 0 2.17661e-12 -3.55073e-12 0 0 7.02162e-27
6086 203 0.0015 -0.432824 -1.86908 0 -5.95385e-12 3.44144e-12 0 0 1.31352e-26
8001 267 0.0015 -0.241392 -1.86876 0 -3.02811e-12 -3.74315e-12 0 0 2.1015e-27
8000 267 0.0015 -0.239066 -1.86964 0 2.41249e-12 7.73975e-14 0 0 2.23946e-27
8012 268 0.0015 -0.171924 -1.86923 0 8.26464e-13 2.30117e-12 0 0 1.14881e-26
10332 345 0.0015 -0.0679644 -1.86909 0 7.36337e-13 -3.83534e-12 0 0 9.90549e-27
1957 66 0.0015 0.0127576 -1.86871 0 -4.00889e-13 2.99102e-12 0 1.04021e-20 1.19355e-26
10269 343 0.0015 0.423451 -1.86924 0 5.56484e-13 2.77903e-12 0 0 4.49032e-27
1482 50 0.0015 0.581354 -1.86848 0 -1.74957e-12 -3.144e-12 0 6.81478e-21 8.08596e-27
3528 118 0.0015 0.668424 -1.86944 0 3.47205e-12 2.66468e-12 0 1.57149e-20 1.31442e-26
2651 89 0.0015 -0.608121 -1.86636 0 -2.02439e-12 1.65643e-12 0 0 1.01239e-26
10305 344 0.0015 -0.501838 -1.8667 0 -8.93862e-12 3.2184e-12 0 0 3.82363e-26
10304 344 0.0015 -0.499014 -1.86761 0 1.06395e-11 -2.31488e-12 0 1.68424e-20 4.84236e-26
6089 203 0.0015 -0.438274 -1.86649 0 -7.05373e-12 1.22263e-12 0 0 1.70574e-26
6088 203 0.0015 -0.436457 -1.86735 0 4.70618e-12 -2.27153e-12 0 0 1.5611e-26
8004 267 0.0015 -0.248369 -1.86612 0 -1.89292e-12 3.46073e-12 0 1.00459e-20 3.09751e-27
8003 267 0.0015 -0.246044 -1.867 0 9.73511e-13 -3.87105e-12 0 0 1.97978e-27
8002 267 0.0015 -0.243718 -1.86788 0 9.18204e-13 5.24457e-12 0 0 4.48329e-28
8046 269 0.0015 0.152008 -1.86695 0 -5.49374e-13 5.38626e-12 0 0 2.82185e-26
6004 201 0.0015 0.499982 -1.86721 0 1.04091e-13 3.45662e-13 0 0 6.65088e-28
3527 118 0.0015 0.670962 -1.86752 0 2.1139e-12 1.68741e-12 0 3.14298e-20 9.67978e-27
10307 344 0.0015 -0.507486 -1.86489 0 8.56597e-13 1.78039e-12 0 0 2.49719e-28
10306 344 0.0015 -0.504662 -1.8658 0 3.36338e-12 -3.13536e-12 0 0 1.27812e-26
6090 203 0.0015 -0.440091 -1.86563 0 1.82014e-12 7.94252e-14 0 0 1.4485e-27
8006 267 0.0015 -0.253021 -1.86436 0 -2.01611e-12 2.94833e-12 0 2.00918e-20 3.17616e-27
8005 267 0.0015 -0.250695 -1.86524 0 1.37559e-12 -3.6e-12 0 1.00459e-20 2.32407e-27
10333 345 0.0015 -0.0686412 -1.86599 0 -9.97271e-13 5.65059e-12 0 0 1.48352e-26
10203 341 0.0015 0.288506 -1.8653 0 2.43555e-13 -2.46364e-12 0 3.6872e-21 5.95003e-27
4532 152 0.0015 0.364868 -1.86469 0 -2.87137e-13 1.9419e-12 0 1.14541e-20 5.21015e-27
10270 343 0.0015 0.424172 -1.86529 0 -5.05663e-13 -2.89641e-12 0 0 4.82816e-27
1483 50 0.0015 0.58358 -1.86557 0 1.69474e-12 2.65031e-12 0 6.81478e-21 7.50367e-27
3526 118 0.0015 0.673499 -1.86561 0 -6.07165e-12 -4.87838e-12 0 4.71447e-20 2.74612e-26
2652 89 0.0015 -0.611842 -1.86351 0 4.3e-12 -3.44969e-12 0 0 1.97893e-26
10310 344 0.0015 -0.515959 -1.86217 0 -1.37747e-12 1.11653e-14 0 0 4.77757e-27
10309 344 0.0015 -0.513134 -1.86307 0 -2.03238e-12 5.19137e-13 0 0 1.83548e-27
10308 344 0.0015 -0.51031 -1.86398 0 4.12228e-13 -9.40484e-13 0 0 1.3547e-27
6036 202 0.0015 -0.337434 -1.86244 0 -1.20023e-12 1.89698e-12 0 0 6.82058e-27
8008 267 0.0015 -0.257673 -1.8626 0 1.56851e-12 -4.22706e-13 0 2.00918e-20 2.13833e-27
8007 267 0.0015 -0.255347 -1.86348 0 1.61323e-12 -1.37518e-12 0 2.00918e-20 2.39719e-27
10334 345 0.0015 -0.0693181 -1.86288 0 8.25495e-13 -4.86685e-12 0 0 1.07374e-26
1958 66 0.0015 0.0122775 -1.86393 0 9.29842e-13 -8.57707e-12 0 1.56031e-20 5.43149e-26
1484 50 0.0015 0.585807 -1.86266 0 1.00996e-12 1.62963e-12 0 6.81478e-21 5.92085e-27
3525 118 0.0015 0.676036 -1.86369 0 6.07165e-12 4.87838e-12 0 4.71447e-20 2.74612e-26
2653 89 0.0015 -0.615563 -1.86065 0 -3.31448e-12 2.24989e-12 0 0 1.18044e-26
10312 344 0.0015 -0.521607 -1.86035 0 -5.73674e-12 -1.04784e-12 0 1.68424e-20 1.09511e-26
10311 344 0.0015 -0.518783 -1.86126 0 5.37392e-12 4.06067e-13 0 1.68424e-20 1.03854e-26
8010 267 0.0015 -0.262324 -1.86085 0 4.52684e-13 -1.7283e-13 0 0 1.62178e-28
8009 267 0.0015 -0.259998 -1.86172 0 -2.11172e-12 7.44909e-13 0 1.00459e-20 2.28745e-27
8047 269 0.0015 0.151313 -1.86021 0 3.00579e-13 -3.09381e-12 0 3.6872e-21 1.11622e-26
10271 343 0.0015 0.424893 -1.86133 0 3.16007e-14 4.45906e-13 0 0 3.61535e-27
3524 118 0.0015 0.678573 -1.86178 0 -2.1139e-12 -1.68741e-12 0 3.14298e-20 9.67978e-27
10314 344 0.0015 -0.527255 -1.85854 0 -6.09077e-13 -5.09733e-13 0 3.36849e-20 3.18626e-27
10313 344 0.0015 -0.524431 -1.85944 0 4.37536e-12 6.61112e-13 0 3.36849e-20 6.72937e-27
10335 345 0.0015 -0.0699949 -1.85978 0 -5.0901e-13 2.5959e-12 0 0 5.49878e-27
1959 66 0.0015 0.0117974 -1.85915 0 -9.71772e-13 9.37033e-12 0 1.04021e-20 6.14873e-26
4771 160 0.0015 0.0785585 -1.85825 0 -2.58857e-15 1.24523e-13 0 0 3.96454e-29
10204 341 0.0015 0.287705 -1.85857 0 -2.56178e-13 2.53188e-12 0 0 6.22376e-27
6005 201 0.0015 0.502997 -1.85945 0 -5.69964e-13 -1.64138e-12 0 0 4.07193e-27
1485 50 0.0015 0.588033 -1.85975 0 -3.26037e-12 -5.51192e-12 0 6.81478e-21 2.19304e-26
3523 118 0.0015 0.681111 -1.85986 0 -3.47205e-12 -2.66468e-12 0 1.57149e-20 1.31442e-26
2654 89 0.0015 -0.619284 -1.8578 0 2.07664e-12 -9.87688e-13 0 5.32605e-21 3.34958e-27
10316 344 0.0015 -0.532903 -1.85672 0 -4.63147e-12 2.10722e-13 0 3.36849e-20 1.25956e-26
10315 344 0.0015 -0.530079 -1.85763 0 -4.84303e-13 2.90221e-13 0 5.05273e-20 1.42207e-27
8013 268 0.0015 -0.167482 -1.85688 0 -3.16003e-13 -8.89627e-13 0 0 3.21827e-27
10336 345 0.0015 -0.0706718 -1.85667 0 -7.91261e-13 4.33085e-12 0 0 1.83375e-26
4533 152 0.0015 0.36352 -1.85607 0 3.03404e-13 -2.12196e-12 0 1.14541e-20 5.85483e-27
10272 343 0.0015 0.425614 -1.85738 0 3.011e-13 1.41357e-12 0 0 1.37766e-27
1486 50 0.0015 0.59026 -1.85684 0 3.26037e-12 5.51192e-12 0 6.81478e-21 2.19304e-26
3522 118 0.0015 0.683648 -1.85795 0 4.19147e-12 3.29378e-12 0 1.57149e-20 1.48883e-26
3521 118 0.0015 0.686185 -1.85603 0 1.83569e-12 6.49163e-13 0 1.57149e-20 1.20422e-26
2655 89 0.0015 -0.623004 -1.85494 0 -1.54756e-12 7.51139e-13 0 1.06521e-20 1.89774e-27
10318 344 0.0015 -0.538552 -1.85491 0 -2.39072e-13 -2.50034e-12 0 0 3.17979e-27
10317 344 0.0015 -0.535727 -1.85581 0 5.56114e-12 1.10758e-12 0 1.68424e-20 1.32732e-26
6037 202 0.0015 -0.342237 -1.85471 0 6.74803e-13 -1.05826e-12 0 0 2.18719e-27
1960 66 0.0015 0.0113172 -1.85437 0 5.15701e-13 -4.88119e-12 0 5.20104e-21 2.07924e-26
3520 118 0.0015 0.688722 -1.85412 0 -6.0574e-12 -2.90261e-12 0 1.57149e-20 1.91472e-26
2656 89 0.0015 -0.626725 -1.85209 0 -4.17661e-13 4.00323e-13 0 1.59781e-20 2.79017e-27
10320 344 0.0015 -0.5442 -1.85309 0 -1.38135e-12 4.4271e-13 0 0 1.73374e-27
10319 344 0.0015 -0.541376 -1.854 0 7.29781e-14 8.18602e-13 0 0 3.92694e-27
10337 345 0.0015 -0.0713486 -1.85356 0 1.06452e-12 -5.99216e-12 0 1.57149e-20 2.03761e-26
8048 269 0.0015 0.150617 -1.85348 0 -1.28538e-15 2.32698e-13 0 7.37441e-21 1.87651e-27
10273 343 0.0015 0.426335 -1.85342 0 -2.06045e-13 -7.80532e-13 0 0 3.6209e-28
1487 50 0.0015 0.592486 -1.85392 0 -1.00996e-12 -1.62963e-12 0 6.81478e-21 5.92085e-27
3519 118 0.0015 0.69126 -1.8522 0 1.97019e-12 -5.11964e-13 0 1.57149e-20 1.24855e-26
10338 345 0.0015 -0.0720254 -1.85046 0 -4.70434e-13 3.2424e-12 0 1.57149e-20 4.73646e-27
10205 341 0.0015 0.286904 -1.85184 0 1.74863e-13 -1.81422e-12 0 3.6872e-21 3.23785e-27
6006 201 0.0015 0.506013 -1.85168 0 5.04706e-13 1.44886e-12 0 5.99535e-21 3.68457e-27
1488 50 0.0015 0.594712 -1.85101 0 -1.69474e-12 -2.65031e-12 0 6.81478e-21 7.50367e-27
3518 118 0.0015 0.693797 -1.85028 0 1.89412e-12 3.08558e-12 0 1.57149e-20 5.14135e-27
2657 89 0.0015 -0.630446 -1.84923 0 2.42586e-12 -1.55892e-12 0 1.06521e-20 5.44173e-27
1961 66 0.0015 0.0108371 -1.84959 0 -2.25153e-14 -5.12785e-14 0 0 3.5199e-27
4772 160 0.0015 0.0782973 -1.84905 0 -1.8144e-14 6.32982e-13 0 0 1.50735e-27
10274 343 0.0015 0.427056 -1.84946 0 4.60063e-13 1.94062e-12 0 0 3.03398e-27
1489 50 0.0015 0.596939 -1.8481 0 1.74957e-12 3.144e-12 0 6.81478e-21 8.08596e-27
3517 118 0.0015 0.696334 -1.84837 0 -4.32978e-13 -1.40399e-12 0 1.57149e-20 1.82746e-27
2658 89 0.0015 -0.634167 -1.84638 0 -2.94085e-13 -4.10581e-13 0 1.06521e-20 6.67322e-27
6038 202 0.0015 -0.34704 -1.84697 0 -5.50631e-13 8.96751e-13 0 2.74394e-21 1.4461e-27
10339 345 0.0015 -0.0727023 -1.84735 0 8.24926e-13 -4.32066e-12 0 3.14298e-20 8.90739e-27
8049 269 0.0015 0.149922 -1.84674 0 -2.67855e-13 2.39452e-12 0 1.10616e-20 6.92743e-27
6541 219 0.0015 0.213251 -1.84656 0 -1.69413e-13 2.10806e-12 0 0 8.8319e-27
4534 152 0.0015 0.362172 -1.84745 0 -2.93728e-13 1.97638e-12 0 5.72705e-21 4.97929e-27
3516 118 0.0015 0.698871 -1.84645 0 1.99091e-13 3.88717e-13 0 1.57149e-20 3.87684e-28
8014 268 0.0015 -0.163039 -1.84452 0 -2.42125e-13 -6.59437e-13 0 0 1.82439e-27
10340 345 0.0015 -0.0733791 -1.84424 0 -7.31031e-13 3.08736e-12 0 1.57149e-20 6.46568e-27
1962 66 0.0015 0.010357 -1.84481 0 -3.30891e-13 3.24536e-12 0 0 7.65959e-27
10206 341 0.0015 0.286103 -1.84511 0 -2.40429e-14 4.64886e-13 0 3.6872e-21 1.16319e-27
10275 343 0.0015 0.427777 -1.84551 0 -2.95731e-13 -9.40376e-13 0 0 3.29704e-27
1490 50 0.0015 0.599165 -1.84519 0 4.18904e-13 -4.7938e-13 0 6.81478e-21 1.38262e-27
3515 118 0.0015 0.701409 -1.84454 0 -4.60938e-13 3.52774e-13 0 1.57149e-20 5.33695e-28
2659 89 0.0015 -0.637888 -1.84352 0 -3.40522e-12 3.14159e-12 0 5.32605e-21 1.51389e-26
6007 201 0.0015 0.509028 -1.84391 0 -5.30372e-13 -1.42825e-12 0 5.99535e-21 3.62858e-27
1491 50 0.0015 0.601391 -1.84228 0 -2.00886e-12 -1.58248e-12 0 6.81478e-21 3.59408e-27
3514 118 0.0015 0.703946 -1.84262 0 1.41437e-12 1.94816e-13 0 1.57149e-20 2.78257e-27
2660 89 0.0015 -0.641609 -1.84066 0 3.89834e-12 -2.95665e-12 0 5.32605e-21 1.64078e-26
10341 345 0.0015 -0.074056 -1.84114 0 3.55113e-13 -1.14963e-12 0 1.57149e-20 6.4693e-28
1963 66 0.0015 0.00987681 -1.84004 0 1.5153e-13 -1.04262e-12 0 0 7.25952e-27
10276 343 0.0015 0.428498 -1.84155 0 2.95731e-13 9.40376e-13 0 0 3.29704e-27
3513 118 0.0015 0.706483 -1.84071 0 -2.07891e-12 -1.54513e-12 0 0 3.27028e-27
6039 202 0.0015 -0.351842 -1.83924 0 -9.1102e-14 9.98826e-14 0 2.74394e-21 2.41603e-27
10342 345 0.0015 -0.0747328 -1.83803 0 -2.01513e-13 9.49509e-13 0 0 4.84923e-28
4773 160 0.0015 0.0780361 -1.83985 0 4.61566e-14 -1.79734e-12 0 0 4.23287e-27
8050 269 0.0015 0.149226 -1.84 0 2.74329e-13 -2.55602e-12 0 1.10616e-20 7.329e-27
6542 219 0.0015 0.21269 -1.83947 0 1.01787e-13 -1.19274e-12 0 0 1.04953e-26
10207 341 0.0015 0.285302 -1.83839 0 -1.11158e-13 8.6136e-13 0 3.6872e-21 8.0768e-28
4535 152 0.0015 0.360823 -1.83883 0 2.2434e-13 -1.36789e-12 0 0 3.43246e-27
1492 50 0.0015 0.603618 -1.83936 0 2.8557e-12 2.33762e-12 0 0 6.57889e-27
3512 118 0.0015 0.70902 -1.83879 0 -1.12889e-12 -2.83148e-13 0 0 4.03451e-27
2661 89 0.0015 -0.64533 -1.83781 0 -4.05105e-13 -1.45443e-13 0 0 8.20618e-27
10277 343 0.0015 0.429219 -1.8376 0 -4.60063e-13 -1.94062e-12 0 0 3.03398e-27
6008 201 0.0015 0.512043 -1.83614 0 1.50168e-12 3.8524e-12 0 1.19907e-20 2.31663e-26
1493 50 0.0015 0.605844 -1.83645 0 -1.68521e-12 -4.95345e-13 0 0 3.78167e-27
3511 118 0.0015 0.711558 -1.83688 0 1.69028e-12 9.95836e-13 0 0 3.35459e-27
2662 89 0.0015 -0.649051 -1.83495 0 -2.27672e-12 2.19155e-12 0 5.32605e-21 6.44265e-27
10343 345 0.0015 -0.0754097 -1.83493 0 3.50599e-13 -1.76391e-12 0 0 2.08762e-27
1964 66 0.0015 0.00939668 -1.83526 0 1.41086e-13 -1.95747e-12 0 5.20104e-21 2.57562e-27
2663 89 0.0015 -0.652772 -1.8321 0 7.8999e-13 -9.26677e-13 0 5.32605e-21 2.99021e-27
10171 340 0.0015 -0.234195 -1.83312 0 -7.71289e-13 1.0958e-12 0 0 3.89946e-27
8015 268 0.0015 -0.158597 -1.83216 0 4.81332e-13 1.3342e-12 0 0 3.66892e-27
8051 269 0.0015 0.14853 -1.83326 0 -1.87692e-13 1.87642e-12 0 1.10616e-20 3.49794e-27
6543 219 0.0015 0.212128 -1.83239 0 1.90972e-13 -2.54554e-12 0 0 6.94126e-27
10278 343 0.0015 0.429939 -1.83364 0 2.06045e-13 7.80532e-13 0 0 3.6209e-28
1494 50 0.0015 0.60807 -1.83354 0 -5.04372e-13 -2.16106e-12 0 0 2.71344e-27
6040 202 0.0015 -0.356645 -1.83151 0 1.26248e-12 -1.9843e-12 0 5.48788e-21 7.89128e-27
10344 345 0.0015 -0.0760865 -1.83182 0 -1.45057e-12 5.709e-12 0 0 1.89299e-26
1965 66 0.0015 0.00891654 -1.83048 0 -3.12218e-14 7.64272e-13 0 5.20104e-21 1.17573e-27
4774 160 0.0015 0.0777749 -1.83066 0 -5.63738e-14 2.22974e-12 0 2.71488e-21 6.3864e-27
10208 341 0.0015 0.284501 -1.83166 0 5.54361e-14 -5.09315e-13 0 0 6.80636e-28
4536 152 0.0015 0.359475 -1.83021 0 -1.05193e-14 4.87438e-15 0 0 2.18767e-28
1495 50 0.0015 0.610297 -1.83063 0 9.44468e-13 2.18836e-12 0 0 3.06656e-27
2664 89 0.0015 -0.656493 -1.82924 0 2.96898e-13 1.86518e-13 0 5.32605e-21 1.52488e-28
10345 345 0.0015 -0.0767633 -1.82871 0 1.77109e-12 -6.4126e-12 0 1.57149e-20 2.14499e-26
10279 343 0.0015 0.43066 -1.82968 0 -3.011e-13 -1.41357e-12 0 0 1.37766e-27
6009 201 0.0015 0.515058 -1.82837 0 -1.39395e-12 -3.56161e-12 0 1.19907e-20 2.16477e-26
2665 89 0.0015 -0.660213 -1.82639 0 -6.04928e-13 -9.3345e-14 0 0 5.02105e-28
10172 340 0.0015 -0.238704 -1.82673 0 4.53928e-13 -6.647e-13 0 0 4.52152e-27
8052 269 0.0015 0.147835 -1.82652 0 1.71952e-13 -1.85592e-12 0 7.37441e-21 3.43739e-27
1496 50 0.0015 0.612523 -1.82772 0 -7.66317e-13 -1.45376e-12 0 0 1.3454e-27
10346 345 0.0015 -0.0774402 -1.82561 0 -4.43307e-15 -5.49947e-13 0 1.57149e-20 1.14699e-26
1966 66 0.0015 0.0084364 -1.8257 0 -1.07614e-13 7.36366e-13 0 5.20104e-21 4.86883e-28
6544 219 0.0015 0.211567 -1.8253 0 -4.03776e-14 6.58169e-13 0 0 7.15721e-27
10209 341 0.0015 0.2837 -1.82493 0 1.81337e-13 -1.53426e-12 0 0 4.03345e-27
10280 343 0.0015 0.431381 -1.82573 0 -3.16007e-14 -4.45906e-13 0 0 3.61535e-27
1497 50 0.0015 0.614749 -1.8248 0 2.06807e-13 9.96496e-13 0 0 7.82752e-28
2666 89 0.0015 -0.663934 -1.82353 0 1.46396e-12 -7.04552e-13 0 5.32605e-21 1.75067e-27
6041 202 0.0015 -0.361448 -1.82377 0 -1.21117e-12 1.92228e-12 0 5.48788e-21 7.60309e-27
10347 345 0.0015 -0.078117 -1.8225 0 -1.1352e-12 3.90301e-12 0 1.57149e-20 8.32136e-27
2667 89 0.0015 -0.667655 -1.82068 0 -1.8864e-12 1.21673e-12 0 5.32605e-21 3.30095e-27
10173 340 0.0015 -0.243212 -1.82034 0 7.99609e-13 -1.09561e-12 0 0 2.08576e-27
1967 66 0.0015 0.00795626 -1.82092 0 2.04111e-13 -1.91995e-12 0 0 2.87838e-27
4775 160 0.0015 0.0775136 -1.82146 0 1.60558e-14 -6.50189e-13 0 2.71488e-21 4.36631e-27
4537 152 0.0015 0.358127 -1.82159 0 -1.34667e-13 7.4718e-13 0 0 8.38543e-28
10281 343 0.0015 0.432102 -1.82177 0 5.05663e-13 2.89641e-12 0 0 4.82816e-27
6010 201 0.0015 0.518074 -1.8206 0 4.05524e-13 1.0828e-12 0 1.19907e-20 2.03542e-27
1498 50 0.0015 0.616976 -1.82189 0 1.87047e-12 7.5953e-13 0 0 3.23109e-27
8016 268 0.0015 -0.154154 -1.81981 0 -4.48614e-13 -1.24868e-12 0 0 3.22716e-27
10348 345 0.0015 -0.0787939 -1.81939 0 -4.66043e-13 4.22494e-12 0 1.57149e-20 2.79065e-26
8053 269 0.0015 0.147139 -1.81978 0 1.45355e-13 -1.25087e-12 0 3.6872e-21 8.34763e-27
6545 219 0.0015 0.211005 -1.81821 0 -2.41902e-13 2.90865e-12 0 0 9.33502e-27
10210 341 0.0015 0.282899 -1.8182 0 -2.55731e-13 2.27037e-12 0 0 5.29521e-27
1499 50 0.0015 0.619202 -1.81898 0 -1.83429e-12 -6.85871e-13 0 0 3.24448e-27
2668 89 0.0015 -0.671376 -1.81782 0 1.45105e-14 2.08928e-13 0 5.32605e-21 4.41883e-27
6042 202 0.0015 -0.366251 -1.81604 0 4.52594e-13 -7.03676e-13 0 8.23182e-21 1.21733e-27
10349 345 0.0015 -0.0794707 -1.81629 0 1.31626e-12 -7.43989e-12 0 1.57149e-20 3.03025e-26
1968 66 0.0015 0.00747613 -1.81614 0 -3.57357e-14 4.46443e-13 0 0 3.50864e-27
10282 343 0.0015 0.432823 -1.81781 0 -5.56484e-13 -2.77903e-12 0 0 4.49032e-27
1500 50 0.0015 0.621428 -1.81607 0 2.21188e-13 -3.22572e-13 0 0 1.51354e-29
2669 89 0.0015 -0.675097 -1.81497 0 1.61088e-12 -1.3855e-12 0 0 3.16319e-27
5941 199 0.0015 0.740778 -1.81551 0 7.20686e-14 2.90251e-13 0 0 2.38641e-28
2670 89 0.0015 -0.678818 -1.81211 0 -5.89767e-13 4.84154e-13 0 0 7.57714e-28
10174 340 0.0015 -0.24772 -1.81396 0 -1.29944e-12 1.82031e-12 0 6.39056e-21 5.81489e-27
10350 345 0.0015 -0.0801475 -1.81318 0 -3.62428e-13 2.03907e-12 0 1.57149e-20 3.78199e-27
4776 160 0.0015 0.0772524 -1.81226 0 6.31731e-14 -2.27776e-12 0 5.42976e-21 8.47179e-27
8054 269 0.0015 0.146443 -1.81304 0 -2.49154e-13 2.57923e-12 0 0 8.0767e-27
4538 152 0.0015 0.356779 -1.81297 0 1.73094e-13 -8.60726e-13 0 0 9.9212e-28
10283 343 0.0015 0.433544 -1.81386 0 -1.41856e-14 -7.96739e-13 0 0 7.27784e-27
6011 201 0.0015 0.521089 -1.81283 0 -1.06654e-13 -3.78428e-13 0 5.99535e-21 1.92655e-28
1969 66 0.0015 0.00699599 -1.81136 0 -1.05026e-13 8.40347e-13 0 0 1.08637e-27
6546 219 0.0015 0.210443 -1.81113 0 2.59497e-13 -3.10619e-12 0 0 1.01768e-26
10211 341 0.0015 0.282098 -1.81148 0 2.75355e-13 -2.43896e-12 0 0 6.28313e-27
6043 202 0.0015 -0.371054 -1.8083 0 -1.59226e-13 2.21293e-13 0 8.23182e-21 9.69324e-29
10284 343 0.0015 0.434265 -1.8099 0 8.70839e-13 5.84529e-12 0 0 2.09111e-26
10175 340 0.0015 -0.252228 -1.80757 0 9.93993e-13 -1.38838e-12 0 1.91717e-20 4.5363e-27
8017 268 0.0015 -0.149712 -1.80745 0 2.73472e-13 7.55061e-13 0 0 1.51063e-27
1970 66 0.0015 0.00651585 -1.80658 0 5.3715e-14 -1.92911e-13 0 0 8.82534e-29
8055 269 0.0015 0.145748 -1.8063 0 -7.43772e-14 1.66199e-13 0 0 1.86417e-27
5942 199 0.0015 0.743061 -1.80618 0 -1.00259e-13 -4.26923e-13 0 0 2.90532e-28