ITEM: TIMESTEP
430
ITEM: NUMBER OF ATOMS
10500
ITEM: BOX BOUNDS pp pp pp
-1.0249999999999999e+00 1.0249999999999999e+00
-2.0000000000000000e+00 2.0000000000000000e+00
-5.0000000000000003e-02 5.0000000000000003e-02
ITEM: ATOMS id type radius x y z fx fy fz c_bendingE c_stretchingE
10321 345 0.0015 -0.0605191 -1.90326 0 5.34097e-14 -2.39787e-13 0 0 5.32974e-29
6031 202 0.0015 -0.31342 -1.90111 0 1.43702e-14 -2.33777e-14 0 2.74394e-21 1.90399e-30
10322 345 0.0015 -0.061196 -1.90016 0 2.4431e-14 -5.71199e-14 0 0 1.36358e-28
8041 269 0.0015 0.155487 -1.90065 0 -1.78426e-16 5.60966e-16 0 0 6.24637e-34
10261 343 0.0015 0.417684 -1.90089 0 9.39137e-15 -1.88837e-14 0 0 3.18603e-31
1471 50 0.0015 0.556864 -1.90052 0 1.03771e-13 1.16881e-13 0 0 2.47437e-29
10323 345 0.0015 -0.0618728 -1.89705 0 -1.15944e-13 3.45918e-13 0 0 8.58287e-29
1951 66 0.0015 0.0156385 -1.89738 0 -9.26922e-15 1.01649e-13 0 0 1.38995e-29
10262 343 0.0015 0.418405 -1.89694 0 -4.88734e-14 -9.29086e-14 0 1.24237e-20 1.56241e-29
1472 50 0.0015 0.559091 -1.8976 0 -1.42495e-13 -1.74784e-13 0 0 2.96664e-29
2641 89 0.0015 -0.570912 -1.89491 0 -2.35989e-13 1.90597e-13 0 0 1.1981e-28
1473 50 0.0015 0.561317 -1.89469 0 2.74477e-14 5.12356e-14 0 0 5.07279e-30
2642 89 0.0015 -0.574633 -1.89206 0 3.2052e-13 -2.58169e-13 0 5.32605e-21 1.35058e-28
6032 202 0.0015 -0.318223 -1.89337 0 -2.12438e-14 3.76779e-14 0 5.48788e-21 2.5335e-30
10324 345 0.0015 -0.0625496 -1.89394 0 5.05114e-14 -2.7585e-14 0 0 3.06336e-30
1952 66 0.0015 0.0151583 -1.8926 0 -8.95508e-15 8.61674e-14 0 0 6.14051e-29
8042 269 0.0015 0.154791 -1.89391 0 3.2157e-16 -7.8153e-16 0 0 7.24578e-34
10263 343 0.0015 0.419126 -1.89298 0 9.303e-14 3.67236e-13 0 1.24237e-20 9.13399e-29
3540 118 0.0015 0.637977 -1.89243 0 -3.23497e-14 5.44404e-14 0 1.57149e-20 4.32475e-32
6061 203 0.0015 -0.387409 -1.89062 0 -3.134e-13 2.63391e-13 0 0 8.75875e-29
10325 345 0.0015 -0.0632265 -1.89084 0 -9.60406e-14 3.19937e-13 0 0 1.09327e-28
10231 342 0.0015 0.215 -1.89 0 1.38881e-13 0 0 0 3.68318e-30
10232 342 0.0015 0.21569 -1.89 0 -2.89768e-13 0 0 0 8.05753e-30
10233 342 0.0015 0.216379 -1.89 0 2.53103e-13 0 0 0 6.38459e-30
10234 342 0.0015 0.217069 -1.89 0 -1.08885e-13 0 0 0 2.01767e-30
10235 342 0.0015 0.217759 -1.89 0 -3.57769e-14 0 0 0 3.52579e-31
10236 342 0.0015 0.218448 -1.89 0 3.57769e-14 0 0 0 3.52579e-31
10237 342 0.0015 0.219138 -1.89 0 1.09107e-13 0 0 0 2.01767e-30
10238 342 0.0015 0.219828 -1.89 0 -2.89546e-13 0 0 0 8.73299e-30
10239 342 0.0015 0.220517 -1.89 0 3.62876e-13 0 0 0 1.25815e-29
10240 342 0.0015 0.221207 -1.89 0 -2.54657e-13 0 0 0 7.04434e-30
10241 342 0.0015 0.221897 -1.89 0 7.24421e-14 0 0 0 1.19298e-30
10242 342 0.0015 0.222586 -1.89 0 7.24421e-14 0 0 0 8.47393e-31
10243 342 0.0015 0.223276 -1.89 0 -1.08885e-13 0 0 0 1.18512e-30
10244 342 0.0015 0.223966 -1.89 0 1.08663e-13 0 0 0 1.18512e-30
10245 342 0.0015 0.224655 -1.89 0 -1.81105e-13 0 0 0 3.36859e-30
10246 342 0.0015 0.225345 -1.89 0 1.81105e-13 0 0 0 3.36859e-30
10247 342 0.0015 0.226034 -1.89 0 -1.08663e-13 0 0 0 1.18512e-30
10248 342 0.0015 0.226724 -1.89 0 1.08885e-13 0 0 0 1.18512e-30
10249 342 0.0015 0.227414 -1.89 0 -7.24421e-14 0 0 0 8.47393e-31
10250 342 0.0015 0.228103 -1.89 0 -7.24421e-14 0 0 0 1.19298e-30
10251 342 0.0015 0.228793 -1.89 0 2.54657e-13 0 0 0 7.04434e-30
10252 342 0.0015 0.229483 -1.89 0 -3.62876e-13 0 0 0 1.25815e-29
10253 342 0.0015 0.230172 -1.89 0 2.89546e-13 0 0 0 8.73299e-30
10254 342 0.0015 0.230862 -1.89 0 -1.09107e-13 0 0 0 2.01767e-30
10255 342 0.0015 0.231552 -1.89 0 -3.57769e-14 0 0 0 3.52579e-31
10256 342 0.0015 0.232241 -1.89 0 3.57769e-14 0 0 0 3.52579e-31
10257 342 0.0015 0.232931 -1.89 0 1.08885e-13 0 0 0 2.01767e-30
10258 342 0.0015 0.233621 -1.89 0 -2.53103e-13 0 0 0 6.38459e-30
10259 342 0.0015 0.23431 -1.89 0 2.89768e-13 0 0 0 8.05753e-30
10260 342 0.0015 0.235 -1.89 0 -1.38881e-13 0 0 0 3.68318e-30
6001 201 0.0015 0.490936 -1.89052 0 -3.95278e-14 -9.70016e-14 0 5.99535e-21 2.53897e-29
1474 50 0.0015 0.563543 -1.89178 0 -3.96101e-14 1.42048e-14 0 0 7.82175e-31
3539 118 0.0015 0.640514 -1.89051 0 2.19296e-14 -2.42218e-13 0 3.14298e-20 1.3063e-29
2643 89 0.0015 -0.578354 -1.8892 0 -5.25084e-14 4.06644e-14 0 5.32605e-21 1.75221e-29
6063 203 0.0015 -0.391043 -1.8889 0 1.28192e-13 1.37295e-12 0 0 6.469e-29
6064 203 0.0015 -0.392859 -1.88804 0 -6.94235e-13 -1.74812e-12 0 0 2.30309e-29
6062 203 0.0015 -0.389226 -1.88976 0 3.75035e-13 -7.90481e-13 0 0 1.31899e-28
10264 343 0.0015 0.419847 -1.88903 0 -1.18965e-13 -5.97301e-13 0 1.24237e-20 2.11358e-28
1475 50 0.0015 0.56577 -1.88887 0 1.06325e-13 -1.23924e-14 0 0 1.53724e-30
3538 118 0.0015 0.643052 -1.8886 0 3.79108e-14 3.31236e-13 0 4.71447e-20 2.33983e-29
2644 89 0.0015 -0.582074 -1.88635 0 1.61665e-13 -1.41177e-13 0 5.32605e-21 8.76443e-29
6066 203 0.0015 -0.396492 -1.88631 0 5.36836e-14 -9.22684e-13 0 2.48474e-20 8.64995e-29
6065 203 0.0015 -0.394676 -1.88717 0 7.7164e-13 1.59202e-12 0 0 4.29068e-30
7981 267 0.0015 -0.194876 -1.88635 0 1.75184e-13 1.94198e-14 0 1.00459e-20 1.70184e-29
10326 345 0.0015 -0.0639033 -1.88773 0 1.80396e-13 -7.66339e-13 0 0 2.76783e-28
1953 66 0.0015 0.0146782 -1.88782 0 4.15967e-14 -4.53203e-13 0 0 1.42181e-28
8043 269 0.0015 0.154095 -1.88717 0 -1.19041e-16 -1.56273e-17 0 0 1.99884e-34
3537 118 0.0015 0.645589 -1.88668 0 1.19643e-13 7.22522e-15 0 4.71447e-20 4.86665e-29
6068 203 0.0015 -0.400126 -1.88459 0 1.07333e-12 4.33183e-13 0 2.48474e-20 1.7291e-28
6067 203 0.0015 -0.398309 -1.88545 0 -8.70465e-13 6.68245e-14 0 2.48474e-20 1.85895e-28
6033 202 0.0015 -0.323025 -1.88564 0 6.60146e-15 -2.05261e-14 0 8.23182e-21 6.96444e-31
7983 267 0.0015 -0.199527 -1.8846 0 5.78257e-13 -6.3958e-14 0 3.01377e-20 1.13837e-28
7982 267 0.0015 -0.197202 -1.88548 0 -4.2847e-13 -4.8089e-14 0 2.00918e-20 5.25533e-29
10327 345 0.0015 -0.0645802 -1.88463 0 -1.0664e-13 5.00202e-13 0 0 1.72803e-28
10265 343 0.0015 0.420568 -1.88507 0 7.9029e-14 4.05672e-13 0 0 1.40075e-28
1476 50 0.0015 0.567996 -1.88596 0 1.58485e-13 2.60419e-13 0 0 1.1379e-28
3536 118 0.0015 0.648126 -1.88476 0 -2.35921e-13 -3.16916e-13 0 3.14298e-20 6.41174e-29
2645 89 0.0015 -0.585795 -1.88349 0 -3.41203e-13 3.03647e-13 0 0 1.37255e-28
6071 203 0.0015 -0.405575 -1.882 0 1.04509e-13 3.03538e-13 0 4.96948e-20 4.66662e-30
6070 203 0.0015 -0.403759 -1.88287 0 2.00325e-13 2.90881e-13 0 4.96948e-20 3.88579e-30
6069 203 0.0015 -0.401942 -1.88373 0 -6.39637e-13 -5.66495e-13 0 2.48474e-20 7.21895e-29
7985 267 0.0015 -0.204179 -1.88284 0 1.07869e-13 -8.83734e-14 0 1.00459e-20 2.13575e-29
7984 267 0.0015 -0.201853 -1.88372 0 -4.77248e-13 1.74538e-13 0 2.00918e-20 9.85961e-29
1954 66 0.0015 0.0141981 -1.88304 0 -2.3222e-14 2.86466e-13 0 0 9.52621e-29
6002 201 0.0015 0.493952 -1.88275 0 2.84481e-14 5.64826e-14 0 5.99535e-21 2.94303e-29
1477 50 0.0015 0.570222 -1.88304 0 -4.46762e-13 -4.80851e-13 0 0 2.17412e-28
3535 118 0.0015 0.650663 -1.88285 0 9.20724e-14 1.93093e-13 0 1.57149e-20 2.6141e-29
2646 89 0.0015 -0.589516 -1.88064 0 1.97193e-13 -1.80187e-13 0 0 5.76585e-29
6073 203 0.0015 -0.409209 -1.88028 0 1.09327e-12 8.67812e-13 0 2.48474e-20 1.1265e-28
6072 203 0.0015 -0.407392 -1.88114 0 -6.57822e-13 -7.46624e-13 0 2.48474e-20 3.06482e-29
7988 267 0.0015 -0.211156 -1.8802 0 1.50561e-13 1.62917e-13 0 1.00459e-20 2.59204e-30
7987 267 0.0015 -0.208831 -1.88108 0 3.44111e-14 -1.49889e-13 0 1.00459e-20 9.69548e-30
7986 267 0.0015 -0.206505 -1.88196 0 -5.07464e-14 7.91388e-14 0 1.00459e-20 1.01576e-29
8011 268 0.0015 -0.176367 -1.88159 0 -1.52929e-15 -3.2409e-15 0 0 4.64087e-32
10328 345 0.0015 -0.065257 -1.88152 0 1.89829e-14 -1.77645e-13 0 0 1.4243e-29
8044 269 0.0015 0.1534 -1.88043 0 5.94055e-17 1.04291e-17 0 0 1.99884e-34
10266 343 0.0015 0.421289 -1.88111 0 -5.77529e-15 -4.86815e-14 0 0 5.04916e-30
1478 50 0.0015 0.572449 -1.88013 0 2.82139e-13 3.1025e-13 0 0 1.14192e-28
3534 118 0.0015 0.653201 -1.88093 0 -3.36696e-13 -2.20989e-13 0 0 1.29886e-28
10292 344 0.0015 -0.465124 -1.8785 0 -5.46378e-13 1.94235e-13 0 0 1.4846e-28
10291 344 0.0015 -0.4623 -1.87941 0 1.99026e-13 -7.26229e-14 0 0 3.69332e-29
6074 203 0.0015 -0.411025 -1.87942 0 -1.28372e-12 -6.03984e-13 0 4.96948e-20 2.31342e-28
6075 203 0.0015 -0.412842 -1.87856 0 7.33559e-13 3.14422e-13 0 4.96948e-20 1.48338e-28
7990 267 0.0015 -0.215808 -1.87844 0 -1.72114e-13 -3.22574e-14 0 3.01377e-20 2.79348e-29
7989 267 0.0015 -0.213482 -1.87932 0 9.06262e-14 -1.6192e-13 0 1.00459e-20 2.84543e-29
10329 345 0.0015 -0.0659339 -1.87841 0 -1.03557e-13 6.12978e-13 0 0 2.47027e-28
1955 66 0.0015 0.0137179 -1.87827 0 9.61655e-15 -1.23345e-13 0 0 1.46636e-29
10201 341 0.0015 0.290108 -1.87875 0 -1.71807e-14 1.35575e-13 0 0 3.51445e-29
3533 118 0.0015 0.655738 -1.87902 0 5.53294e-13 3.07925e-13 0 1.57149e-20 1.82182e-28
2647 89 0.0015 -0.593237 -1.87778 0 -2.50957e-13 1.7656e-13 0 0 8.08202e-29
10294 344 0.0015 -0.470773 -1.87669 0 -5.07619e-14 1.26301e-13 0 3.36849e-20 3.6175e-30
10293 344 0.0015 -0.467948 -1.87759 0 3.63274e-13 -1.5724e-13 0 1.68424e-20 1.12086e-28
6077 203 0.0015 -0.416475 -1.87683 0 -6.30288e-13 5.30015e-13 0 0 1.89245e-28
6076 203 0.0015 -0.414658 -1.87769 0 3.66526e-13 -3.68626e-13 0 2.48474e-20 1.40839e-28
6034 202 0.0015 -0.327828 -1.87791 0 -5.8392e-15 2.24133e-14 0 5.48788e-21 7.95883e-31
7992 267 0.0015 -0.22046 -1.87668 0 5.71161e-13 -2.18111e-13 0 3.01377e-20 1.37417e-28
7991 267 0.0015 -0.218134 -1.87756 0 -2.02825e-13 2.38892e-13 0 4.01836e-20 3.74005e-29
10267 343 0.0015 0.42201 -1.87716 0 -4.23497e-14 -2.15855e-13 0 1.24237e-20 4.66164e-29
1479 50 0.0015 0.574675 -1.87722 0 2.66708e-14 -1.43975e-13 0 0 9.66606e-30
3532 118 0.0015 0.658275 -1.8771 0 -6.20429e-15 -1.21648e-14 0 1.57149e-20 1.00055e-28
2648 89 0.0015 -0.596958 -1.87493 0 3.93534e-13 -2.19874e-13 0 0 1.3036e-28
10296 344 0.0015 -0.476421 -1.87487 0 -2.65742e-13 2.06138e-13 0 3.36849e-20 4.15064e-29
10295 344 0.0015 -0.473597 -1.87578 0 1.76148e-13 -2.15297e-13 0 5.05273e-20 2.76151e-29
6080 203 0.0015 -0.421925 -1.87425 0 7.46311e-13 -6.16411e-14 0 2.48474e-20 1.42719e-28
6079 203 0.0015 -0.420108 -1.87511 0 -5.80405e-14 2.7008e-13 0 0 5.04072e-29
6078 203 0.0015 -0.418291 -1.87597 0 -1.12789e-14 -4.52166e-13 0 0 5.53843e-29
7995 267 0.0015 -0.227437 -1.87404 0 3.43686e-13 3.53841e-14 0 2.00918e-20 4.59559e-29
7994 267 0.0015 -0.225111 -1.87492 0 2.52556e-13 -1.57522e-13 0 1.00459e-20 8.66073e-29
7993 267 0.0015 -0.222785 -1.8758 0 -7.12741e-13 1.86828e-13 0 1.00459e-20 1.85815e-28
10330 345 0.0015 -0.0666107 -1.87531 0 2.19887e-13 -1.11097e-12 0 0 5.70079e-28
6003 201 0.0015 0.496967 -1.87498 0 4.29194e-15 3.67234e-14 0 5.99535e-21 4.12379e-30
1480 50 0.0015 0.576901 -1.87431 0 -1.94626e-13 9.43796e-14 0 0 1.96973e-30
3531 118 0.0015 0.660812 -1.87519 0 -2.79382e-13 -2.25478e-14 0 1.57149e-20 4.7468e-29
2649 89 0.0015 -0.600679 -1.87207 0 -1.3497e-13 -1.01934e-14 0 0 6.97297e-29
10299 344 0.0015 -0.484893 -1.87215 0 -3.50823e-13 1.63517e-15 0 0 5.01258e-29
10298 344 0.0015 -0.482069 -1.87306 0 5.89528e-14 5.62054e-14 0 0 1.65462e-29
10297 344 0.0015 -0.479245 -1.87396 0 1.91798e-13 -1.29557e-13 0 1.68424e-20 2.20682e-29
6082 203 0.0015 -0.425558 -1.87252 0 9.16202e-14 -5.81423e-14 0 2.48474e-20 4.25926e-30
6081 203 0.0015 -0.423741 -1.87338 0 -6.12795e-13 -1.12355e-13 0 2.48474e-20 1.03144e-28
7997 267 0.0015 -0.232089 -1.87228 0 5.89178e-14 -3.27777e-13 0 1.00459e-20 1.05216e-29
7996 267 0.0015 -0.229763 -1.87316 0 -2.98804e-13 1.13824e-13 0 2.00918e-20 4.68965e-29
10331 345 0.0015 -0.0672875 -1.8722 0 -2.81419e-13 1.26606e-12 0 0 7.4492e-28
1956 66 0.0015 0.0132378 -1.87349 0 -4.34492e-14 4.58081e-13 0 0 1.84501e-28
8045 269 0.0015 0.152704 -1.87369 0 -3.93282e-16 3.09162e-16 0 0 1.24927e-34
10202 341 0.0015 0.289307 -1.87202 0 2.21256e-14 -1.54601e-13 0 0 3.58581e-29
4531 152 0.0015 0.366216 -1.8733 0 1.37516e-14 -8.46185e-14 0 5.72705e-21 1.78083e-29
10268 343 0.0015 0.422731 -1.8732 0 1.18653e-13 7.73594e-13 0 2.48474e-20 4.20374e-28
3530 118 0.0015 0.66335 -1.87327 0 2.15462e-13 -5.92472e-14 0 1.57149e-20 1.52885e-29
10301 344 0.0015 -0.490541 -1.87033 0 -2.34005e-13 1.47441e-13 0 0 3.54495e-29
10300 344 0.0015 -0.487717 -1.87124 0 2.94314e-13 -3.51568e-14 0 0 4.32363e-29
6084 203 0.0015 -0.429191 -1.8708 0 3.0955e-13 6.03203e-14 0 0 2.80212e-29
6083 203 0.0015 -0.427374 -1.87166 0 1.05329e-14 1.52181e-13 0 0 8.86251e-31
6035 202 0.0015 -0.332631 -1.87017 0 -1.35376e-14 1.42075e-14 0 2.74394e-21 4.04018e-30
7999 267 0.0015 -0.23674 -1.87052 0 3.5652e-13 -5.81563e-13 0 0 1.0047e-28
7998 267 0.0015 -0.234415 -1.8714 0 -1.83274e-13 5.87826e-13 0 0 6.01375e-29
1481 50 0.0015 0.579128 -1.8714 0 1.18592e-15 -3.05601e-13 0 1.36296e-20 8.52594e-29
3529 118 0.0015 0.665887 -1.87136 0 -8.00569e-13 -3.98307e-13 0 3.14298e-20 5.08625e-28
2650 89 0.0015 -0.6044 -1.86922 0 -4.19748e-13 3.69973e-13 0 0 2.81822e-28
10303 344 0.0015 -0.49619 -1.86852 0 -1.67906e-13 9.89259e-14 0 0 3.73169e-29
10302 344 0.0015 -0.493366 -1.86943 0 3.50455e-13 -2.34492e-13 0 0 6.78448e-29
6087 203 0.0015 -0.434641 -1.86821 0 -4.89676e-13 3.60462e-13 0 4.96948e-20 1.5311e-28
6085 203 0.0015 -0.431008 -1.86994 0 -7.01936e-13 3.37425e-15 0 2.48474e-20 1.23114e-28
6086 203 0.0015 -0.432824 -1.86908 0 8.62e-13 -3.55906e-13 0 4.96948e-20 2.45255e-28
8001 267 0.0015 -0.241392 -1.86876 0 1.37577e-13 2.91507e-13 0 0 5.82277e-30
8000 267 0.0015 -0.239066 -1.86964 0 -3.00417e-13 1.64084e-13 0 0 5.16696e-29
8012 268 0.0015 -0.171924 -1.86923 0 1.05034e-14 2.62962e-14 0 0 2.27733e-30
10332 345 0.0015 -0.0679644 -1.86909 0 2.64065e-13 -1.14924e-12 0 0 6.29504e-28
1957 66 0.0015 0.0127576 -1.86871 0 4.75941e-14 -5.34928e-13 0 5.20104e-21 2.13457e-28
10269 343 0.0015 0.423451 -1.86924 0 -6.94022e-14 -6.01811e-13 0 2.48474e-20 3.748e-28
1482 50 0.0015 0.581354 -1.86848 0 4.04191e-14 1.71215e-13 0 2.04443e-20 9.93106e-29
3528 118 0.0015 0.668424 -1.86944 0 1.21244e-12 6.42956e-13 0 3.14298e-20 8.19378e-28
2651 89 0.0015 -0.608121 -1.86636 0 6.22592e-13 -4.24957e-13 0 0 3.8434e-28
10305 344 0.0015 -0.501838 -1.8667 0 1.54808e-13 -2.06839e-13 0 0 1.89211e-29
10304 344 0.0015 -0.499014 -1.86761 0 -1.1266e-13 1.28537e-13 0 0 1.32589e-29
6089 203 0.0015 -0.438274 -1.86649 0 7.05974e-13 9.4079e-14 0 0 1.47621e-28
6088 203 0.0015 -0.436457 -1.86735 0 -5.04943e-13 -6.94636e-14 0 2.48474e-20 1.46453e-28
8004 267 0.0015 -0.248369 -1.86612 0 1.71214e-14 1.55873e-13 0 0 2.39927e-30
8003 267 0.0015 -0.246044 -1.867 0 1.00235e-13 -1.10813e-13 0 0 6.24619e-30
8002 267 0.0015 -0.243718 -1.86788 0 -1.19655e-13 -2.43622e-13 0 0 5.83936e-30
8046 269 0.0015 0.152008 -1.86695 0 1.04806e-15 -1.39981e-15 0 0 3.62289e-33
6004 201 0.0015 0.499982 -1.86721 0 -1.75423e-14 -6.71506e-14 0 5.99535e-21 1.30835e-29
3527 118 0.0015 0.670962 -1.86752 0 -5.11119e-13 -1.53294e-13 0 1.57149e-20 3.3619e-28
10307 344 0.0015 -0.507486 -1.86489 0 -6.75766e-14 4.03063e-13 0 1.68424e-20 4.94696e-29
10306 344 0.0015 -0.504662 -1.8658 0 -1.42623e-13 5.58136e-15 0 1.68424e-20 8.2606e-30
6090 203 0.0015 -0.440091 -1.86563 0 -1.57832e-13 -1.1885e-13 0 0 4.68884e-30
8006 267 0.0015 -0.253021 -1.86436 0 2.32809e-13 -1.57027e-13 0 0 2.8049e-29
8005 267 0.0015 -0.250695 -1.86524 0 -1.02569e-13 4.96103e-14 0 0 6.60092e-30
10333 345 0.0015 -0.0686412 -1.86599 0 -4.44828e-14 2.39981e-13 0 0 2.72712e-28
10203 341 0.0015 0.288506 -1.8653 0 -2.6296e-14 1.58399e-13 0 0 3.80851e-29
4532 152 0.0015 0.364868 -1.86469 0 -4.08112e-14 2.59906e-13 0 1.14541e-20 9.40334e-29
10270 343 0.0015 0.424172 -1.86529 0 -1.42903e-13 -6.15634e-13 0 1.24237e-20 4.83058e-28
1483 50 0.0015 0.58358 -1.86557 0 2.39909e-13 3.82511e-13 0 2.04443e-20 1.22993e-28
3526 118 0.0015 0.673499 -1.86561 0 -3.71775e-13 -3.41744e-13 0 0 1.48182e-28
2652 89 0.0015 -0.611842 -1.86351 0 -3.3796e-13 1.79364e-13 0 0 1.24805e-28
10310 344 0.0015 -0.515959 -1.86217 0 2.08293e-13 -5.19231e-13 0 1.68424e-20 6.47816e-29
10309 344 0.0015 -0.513134 -1.86307 0 -4.47739e-13 6.50522e-13 0 1.68424e-20 1.64855e-28
10308 344 0.0015 -0.51031 -1.86398 0 4.16497e-13 -6.65089e-13 0 1.68424e-20 1.54359e-28
6036 202 0.0015 -0.337434 -1.86244 0 5.30245e-14 -8.8401e-14 0 0 1.46236e-29
8008 267 0.0015 -0.257673 -1.8626 0 2.40097e-13 -2.45079e-13 0 1.00459e-20 4.72935e-29
8007 267 0.0015 -0.255347 -1.86348 0 -3.84043e-13 2.07836e-13 0 1.00459e-20 6.68148e-29
10334 345 0.0015 -0.0693181 -1.86288 0 -1.53839e-13 6.42154e-13 0 0 2.03312e-28
1958 66 0.0015 0.0122775 -1.86393 0 1.10245e-14 -4.69171e-14 0 5.20104e-21 1.12012e-28
1484 50 0.0015 0.585807 -1.86266 0 1.0954e-13 1.07378e-14 0 6.81478e-21 2.69233e-28
3525 118 0.0015 0.676036 -1.86369 0 3.71775e-13 3.41744e-13 0 0 1.48182e-28
2653 89 0.0015 -0.615563 -1.86065 0 -1.89012e-14 7.73527e-14 0 5.32605e-21 3.33366e-29
10312 344 0.0015 -0.521607 -1.86035 0 -7.40677e-14 -2.10176e-14 0 1.68424e-20 4.70254e-29
10311 344 0.0015 -0.518783 -1.86126 0 1.84625e-13 2.29738e-13 0 1.68424e-20 3.93005e-29
8010 267 0.0015 -0.262324 -1.86085 0 -1.8014e-13 -4.18785e-15 0 0 1.92665e-29
8009 267 0.0015 -0.259998 -1.86172 0 1.65456e-13 1.22508e-13 0 1.00459e-20 2.13992e-29
8047 269 0.0015 0.151313 -1.86021 0 -1.19029e-15 2.19345e-15 0 0 5.19698e-33
10271 343 0.0015 0.424893 -1.86133 0 1.6462e-13 8.08199e-13 0 0 5.13663e-28
3524 118 0.0015 0.678573 -1.86178 0 5.11119e-13 1.53294e-13 0 1.57149e-20 3.3619e-28
10314 344 0.0015 -0.527255 -1.85854 0 1.1554e-13 1.27239e-13 0 5.05273e-20 5.94394e-30
10313 344 0.0015 -0.524431 -1.85944 0 -2.46047e-13 -5.40306e-14 0 3.36849e-20 2.05622e-29
10335 345 0.0015 -0.0699949 -1.85978 0 4.1851e-14 -1.81144e-13 0 0 1.91229e-28
1959 66 0.0015 0.0117974 -1.85915 0 -5.00224e-14 4.58079e-13 0 5.20104e-21 1.41654e-28
4771 160 0.0015 0.0785585 -1.85825 0 -8.28947e-17 -1.70094e-15 0 0 7.3587e-33
10204 341 0.0015 0.287705 -1.85857 0 6.66634e-14 -4.63413e-13 0 0 2.38752e-28
6005 201 0.0015 0.502997 -1.85945 0 2.67562e-14 7.62356e-14 0 1.19907e-20 1.30784e-29
1485 50 0.0015 0.588033 -1.85975 0 -7.75679e-13 -9.12445e-13 0 0 8.08708e-28
3523 118 0.0015 0.681111 -1.85986 0 -1.21244e-12 -6.42956e-13 0 3.14298e-20 8.19378e-28
2654 89 0.0015 -0.619284 -1.8578 0 9.69052e-14 -1.47956e-13 0 5.32605e-21 2.64245e-29
10316 344 0.0015 -0.532903 -1.85672 0 4.8756e-13 -1.82001e-13 0 1.68424e-20 1.14172e-28
10315 344 0.0015 -0.530079 -1.85763 0 -2.91795e-13 3.48053e-14 0 3.36849e-20 7.49499e-29
8013 268 0.0015 -0.167482 -1.85688 0 1.49013e-15 7.2971e-15 0 0 5.99002e-30
10336 345 0.0015 -0.0706718 -1.85667 0 1.61635e-14 -1.23886e-13 0 0 5.23203e-29
4533 152 0.0015 0.36352 -1.85607 0 6.75191e-14 -4.44849e-13 0 1.71811e-20 2.56258e-28
10272 343 0.0015 0.425614 -1.85738 0 1.55452e-14 1.41633e-13 0 0 1.38436e-28
1486 50 0.0015 0.59026 -1.85684 0 7.75679e-13 9.12445e-13 0 0 8.08708e-28
3522 118 0.0015 0.683648 -1.85795 0 8.00569e-13 3.98307e-13 0 3.14298e-20 5.08625e-28
3521 118 0.0015 0.686185 -1.85603 0 -2.15462e-13 5.92472e-14 0 1.57149e-20 1.52885e-29
2655 89 0.0015 -0.623004 -1.85494 0 1.68086e-14 7.38747e-14 0 5.32605e-21 9.85204e-31
10318 344 0.0015 -0.538552 -1.85491 0 1.72275e-14 1.43146e-13 0 0 4.18282e-31
10317 344 0.0015 -0.535727 -1.85581 0 -2.08674e-13 4.69591e-14 0 0 3.93842e-29
6037 202 0.0015 -0.342237 -1.85471 0 -9.24967e-15 2.55471e-14 0 0 1.54197e-29
1960 66 0.0015 0.0113172 -1.85437 0 3.7636e-14 -3.37128e-13 0 5.20104e-21 8.76119e-29
3520 118 0.0015 0.688722 -1.85412 0 2.79382e-13 2.25478e-14 0 1.57149e-20 4.7468e-29
2656 89 0.0015 -0.626725 -1.85209 0 1.33903e-13 -1.82852e-13 0 5.32605e-21 5.91573e-29
10320 344 0.0015 -0.5442 -1.85309 0 -9.62789e-15 7.75401e-14 0 0 8.91631e-31
10319 344 0.0015 -0.541376 -1.854 0 -2.09223e-15 -1.85439e-13 0 0 1.28475e-30
10337 345 0.0015 -0.0713486 -1.85356 0 2.08338e-13 -8.41113e-13 0 0 5.29313e-28
8048 269 0.0015 0.150617 -1.85348 0 2.38088e-16 2.77599e-17 0 0 3.19814e-33
10273 343 0.0015 0.426335 -1.85342 0 -5.51868e-14 -3.44353e-13 0 1.24237e-20 1.08787e-28
1487 50 0.0015 0.592486 -1.85392 0 -1.0954e-13 -1.07378e-14 0 6.81478e-21 2.69233e-28
3519 118 0.0015 0.69126 -1.8522 0 6.20429e-15 1.21648e-14 0 1.57149e-20 1.00055e-28
10338 345 0.0015 -0.0720254 -1.85046 0 -1.6292e-13 6.96959e-13 0 0 5.2321e-28
10205 341 0.0015 0.286904 -1.85184 0 -8.9213e-14 6.43842e-13 0 0 3.97407e-28
6006 201 0.0015 0.506013 -1.85168 0 6.94278e-14 1.84274e-13 0 1.19907e-20 9.52019e-29
1488 50 0.0015 0.594712 -1.85101 0 -2.39909e-13 -3.82511e-13 0 2.04443e-20 1.22993e-28
3518 118 0.0015 0.693797 -1.85028 0 -5.53294e-13 -3.07925e-13 0 1.57149e-20 1.82182e-28
2657 89 0.0015 -0.630446 -1.84923 0 -3.91428e-13 3.65887e-13 0 5.32605e-21 1.92731e-28
1961 66 0.0015 0.0108371 -1.84959 0 -4.34972e-14 4.17552e-13 0 1.04021e-20 1.46487e-28
4772 160 0.0015 0.0782973 -1.84905 0 -8.72377e-16 4.29217e-14 0 0 4.3526e-30
10274 343 0.0015 0.427056 -1.84946 0 2.51353e-15 4.0011e-14 0 1.24237e-20 1.70128e-30
1489 50 0.0015 0.596939 -1.8481 0 -4.04191e-14 -1.71215e-13 0 2.04443e-20 9.93106e-29
3517 118 0.0015 0.696334 -1.84837 0 3.36696e-13 2.20989e-13 0 0 1.29886e-28
2658 89 0.0015 -0.634167 -1.84638 0 5.50833e-13 -4.61899e-13 0 5.32605e-21 3.39926e-28
6038 202 0.0015 -0.34704 -1.84697 0 -6.08029e-14 8.33652e-14 0 0 1.40159e-29
10339 345 0.0015 -0.0727023 -1.84735 0 -6.08937e-14 2.64773e-13 0 1.57149e-20 4.49227e-29
8049 269 0.0015 0.149922 -1.84674 0 2.02307e-16 -7.93671e-16 0 0 1.62406e-33
6541 219 0.0015 0.213251 -1.84656 0 1.63333e-14 -2.05796e-13 0 3.51396e-21 8.41593e-29
4534 152 0.0015 0.362172 -1.84745 0 -4.56274e-14 3.0806e-13 0 1.14541e-20 1.83687e-28
3516 118 0.0015 0.698871 -1.84645 0 -9.20724e-14 -1.93093e-13 0 1.57149e-20 2.6141e-29
8014 268 0.0015 -0.163039 -1.84452 0 -2.35811e-14 -6.69532e-14 0 0 9.27293e-30
10340 345 0.0015 -0.0733791 -1.84424 0 4.19154e-15 -5.33624e-14 0 1.57149e-20 6.69464e-29
1962 66 0.0015 0.010357 -1.84481 0 6.47422e-14 -6.63063e-13 0 1.56031e-20 2.97051e-28
10206 341 0.0015 0.286103 -1.84511 0 5.96965e-14 -4.27695e-13 0 0 2.18386e-28
10275 343 0.0015 0.427777 -1.84551 0 -1.31753e-14 -5.62344e-14 0 1.24237e-20 3.61433e-30
1490 50 0.0015 0.599165 -1.84519 0 -1.18592e-15 3.05601e-13 0 1.36296e-20 8.52594e-29
3515 118 0.0015 0.701409 -1.84454 0 2.35921e-13 3.16916e-13 0 3.14298e-20 6.41174e-29
2659 89 0.0015 -0.637888 -1.84352 0 -5.27745e-13 4.47409e-13 0 0 3.18248e-28
6007 201 0.0015 0.509028 -1.84391 0 -1.01225e-13 -2.67192e-13 0 1.19907e-20 1.11069e-28
1491 50 0.0015 0.601391 -1.84228 0 1.94626e-13 -9.43796e-14 0 0 1.96973e-30
3514 118 0.0015 0.703946 -1.84262 0 -1.19643e-13 -7.22522e-15 0 4.71447e-20 4.86665e-29
2660 89 0.0015 -0.641609 -1.84066 0 2.11307e-13 -2.54764e-13 0 0 1.13065e-28
10341 345 0.0015 -0.074056 -1.84114 0 1.08341e-13 -4.50718e-13 0 1.57149e-20 1.02394e-28
1963 66 0.0015 0.00987681 -1.84004 0 -4.3929e-14 4.56394e-13 0 1.04021e-20 1.80574e-28
10276 343 0.0015 0.428498 -1.84155 0 1.31753e-14 5.62344e-14 0 1.24237e-20 3.61433e-30
3513 118 0.0015 0.706483 -1.84071 0 -3.79108e-14 -3.31236e-13 0 4.71447e-20 2.33983e-29
6039 202 0.0015 -0.351842 -1.83924 0 5.18832e-14 -7.23537e-14 0 0 1.16496e-29
10342 345 0.0015 -0.0747328 -1.83803 0 -7.53103e-14 3.70221e-13 0 1.57149e-20 8.37004e-29
4773 160 0.0015 0.0780361 -1.83985 0 -5.41622e-16 3.23538e-16 0 0 8.7623e-30
8050 269 0.0015 0.149226 -1.84 0 3.09732e-16 -6.66903e-16 0 0 6.49622e-34
6542 219 0.0015 0.21269 -1.83947 0 -3.33987e-14 4.21887e-13 0 7.02791e-21 1.76945e-28
10207 341 0.0015 0.285302 -1.83839 0 -2.4836e-14 1.81893e-13 0 0 3.2819e-29
4535 152 0.0015 0.360823 -1.83883 0 2.41426e-14 -1.60161e-13 0 1.14541e-20 4.03939e-29
1492 50 0.0015 0.603618 -1.83936 0 -2.66708e-14 1.43975e-13 0 0 9.66606e-30
3512 118 0.0015 0.70902 -1.83879 0 -2.19296e-14 2.42218e-13 0 3.14298e-20 1.3063e-29
2661 89 0.0015 -0.64533 -1.83781 0 1.15779e-13 1.06303e-14 0 0 1.83761e-29
10277 343 0.0015 0.429219 -1.8376 0 -2.51353e-15 -4.0011e-14 0 1.24237e-20 1.70128e-30
6008 201 0.0015 0.512043 -1.83614 0 1.68885e-14 4.60956e-14 0 1.19907e-20 1.86075e-29
1493 50 0.0015 0.605844 -1.83645 0 -2.82139e-13 -3.1025e-13 0 0 1.14192e-28
3511 118 0.0015 0.711558 -1.83688 0 3.23497e-14 -5.44404e-14 0 1.57149e-20 4.32475e-32
2662 89 0.0015 -0.649051 -1.83495 0 -2.0273e-13 1.11739e-13 0 0 3.41179e-29
10343 345 0.0015 -0.0754097 -1.83493 0 -1.48543e-13 6.38203e-13 0 3.14298e-20 4.83985e-28
1964 66 0.0015 0.00939668 -1.83526 0 -1.64168e-14 1.66292e-13 0 5.20104e-21 1.14783e-28
2663 89 0.0015 -0.652772 -1.8321 0 2.98145e-13 -2.13217e-13 0 0 9.99404e-29
10171 340 0.0015 -0.234195 -1.83312 0 -5.14721e-14 7.29354e-14 0 0 1.73051e-29
8015 268 0.0015 -0.158597 -1.83216 0 1.32295e-14 3.65597e-14 0 0 5.51382e-30
8051 269 0.0015 0.14853 -1.83326 0 -2.50098e-16 6.72082e-16 0 0 6.49622e-34
6543 219 0.0015 0.212128 -1.83239 0 2.60696e-14 -3.36989e-13 0 7.02791e-21 1.21807e-28
10278 343 0.0015 0.429939 -1.83364 0 5.51868e-14 3.44353e-13 0 1.24237e-20 1.08787e-28
1494 50 0.0015 0.60807 -1.83354 0 4.46762e-13 4.80851e-13 0 0 2.17412e-28
6040 202 0.0015 -0.356645 -1.83151 0 -9.28645e-15 1.9264e-14 0 0 1.80358e-30
10344 345 0.0015 -0.0760865 -1.83182 0 3.15914e-13 -1.50659e-12 0 3.14298e-20 1.04827e-27
1965 66 0.0015 0.00891654 -1.83048 0 5.66468e-14 -5.80095e-13 0 5.20104e-21 2.27474e-28
4774 160 0.0015 0.0777749 -1.83066 0 -9.33584e-16 6.44767e-14 0 2.71488e-21 3.3162e-29
10208 341 0.0015 0.284501 -1.83166 0 3.61225e-14 -3.21077e-13 0 0 1.26708e-28
4536 152 0.0015 0.359475 -1.83021 0 -6.06508e-14 3.89033e-13 0 5.72705e-21 2.1418e-28
1495 50 0.0015 0.610297 -1.83063 0 -1.58485e-13 -2.60419e-13 0 0 1.1379e-28
2664 89 0.0015 -0.656493 -1.82924 0 -1.76964e-13 1.15505e-13 0 0 8.53289e-29
10345 345 0.0015 -0.0767633 -1.82871 0 -2.40508e-13 1.29159e-12 0 1.57149e-20 7.99501e-28
10279 343 0.0015 0.43066 -1.82968 0 -1.55452e-14 -1.41633e-13 0 0 1.38436e-28
6009 201 0.0015 0.515058 -1.82837 0 -2.48689e-14 -6.69145e-14 0 1.19907e-20 2.83249e-29
2665 89 0.0015 -0.660213 -1.82639 0 -8.80205e-14 5.36934e-14 0 0 7.08193e-30
10172 340 0.0015 -0.238704 -1.82673 0 9.08727e-14 -1.26772e-13 0 0 2.69668e-29
8052 269 0.0015 0.147835 -1.82652 0 -4.76312e-16 1.11321e-15 0 0 3.04823e-33
1496 50 0.0015 0.612523 -1.82772 0 -1.06325e-13 1.23924e-14 0 0 1.53724e-30
10346 345 0.0015 -0.0774402 -1.82561 0 1.55082e-13 -9.15976e-13 0 0 3.8398e-28
1966 66 0.0015 0.0084364 -1.8257 0 -5.01404e-14 4.99052e-13 0 5.20104e-21 1.77005e-28
6544 219 0.0015 0.211567 -1.8253 0 -1.44303e-14 1.9427e-13 0 3.51396e-21 3.97108e-29
10209 341 0.0015 0.2837 -1.82493 0 -4.51638e-14 4.30125e-13 0 0 1.79892e-28
10280 343 0.0015 0.431381 -1.82573 0 -1.6462e-13 -8.08199e-13 0 0 5.13663e-28
1497 50 0.0015 0.614749 -1.8248 0 3.96101e-14 -1.42048e-14 0 0 7.82175e-31
2666 89 0.0015 -0.663934 -1.82353 0 -6.58448e-14 1.34834e-13 0 0 5.43818e-29
6041 202 0.0015 -0.361448 -1.82377 0 -4.96852e-14 6.38281e-14 0 0 1.44615e-29
10347 345 0.0015 -0.078117 -1.8225 0 -1.02722e-13 6.19942e-13 0 0 1.93205e-28
2667 89 0.0015 -0.667655 -1.82068 0 1.03673e-14 -1.12783e-13 0 0 6.77669e-29
10173 340 0.0015 -0.243212 -1.82034 0 1.35665e-14 -2.4153e-14 0 6.39056e-21 2.89566e-29
1967 66 0.0015 0.00795626 -1.82092 0 6.29792e-15 -4.4278e-14 0 5.20104e-21 7.82328e-29
4775 160 0.0015 0.0775136 -1.82146 0 1.3218e-16 -4.22627e-14 0 5.42976e-21 3.91484e-29
4537 152 0.0015 0.358127 -1.82159 0 5.68062e-14 -3.64996e-13 0 5.72705e-21 2.01091e-28
10281 343 0.0015 0.432102 -1.82177 0 1.42903e-13 6.15634e-13 0 1.24237e-20 4.83058e-28
6010 201 0.0015 0.518074 -1.8206 0 1.01884e-13 2.66736e-13 0 5.99535e-21 1.00857e-28
1498 50 0.0015 0.616976 -1.82189 0 -2.74477e-14 -5.12356e-14 0 0 5.07279e-30
8016 268 0.0015 -0.154154 -1.81981 0 -6.85397e-15 -1.81304e-14 0 0 1.37004e-30
10348 345 0.0015 -0.0787939 -1.81939 0 -4.01142e-15 -1.07724e-13 0 1.57149e-20 4.84262e-29
8053 269 0.0015 0.147139 -1.81978 0 2.50304e-16 -6.72048e-16 0 0 3.64788e-33
6545 219 0.0015 0.211005 -1.81821 0 9.18786e-16 -5.87946e-16 0 0 2.11874e-29
10210 341 0.0015 0.282899 -1.8182 0 4.10505e-14 -4.00205e-13 0 0 1.53367e-28
1499 50 0.0015 0.619202 -1.81898 0 1.42495e-13 1.74784e-13 0 0 2.96664e-29
2668 89 0.0015 -0.671376 -1.81782 0 3.88351e-13 -2.45473e-13 0 0 1.68241e-28
6042 202 0.0015 -0.366251 -1.81604 0 3.5361e-14 -4.6473e-14 0 0 1.51576e-29
10349 345 0.0015 -0.0794707 -1.81629 0 -2.01997e-14 1.78199e-13 0 1.57149e-20 8.06367e-29
1968 66 0.0015 0.00747613 -1.81614 0 4.58339e-14 -4.57353e-13 0 0 1.5905e-28
10282 343 0.0015 0.432823 -1.81781 0 6.94022e-14 6.01811e-13 0 2.48474e-20 3.748e-28
1500 50 0.0015 0.621428 -1.81607 0 -1.03771e-13 -1.16881e-13 0 0 2.47437e-29
2669 89 0.0015 -0.675097 -1.81497 0 -2.12551e-13 1.58241e-13 0 0 1.57259e-28
5941 199 0.0015 0.740778 -1.81551 0 -1.57125e-14 -6.05765e-14 0 0 1.0448e-29
2670 89 0.0015 -0.678818 -1.81211 0 -6.03833e-14 4.35294e-14 0 0 7.21124e-30
10174 340 0.0015 -0.24772 -1.81396 0 -1.24617e-13 1.79706e-13 0 6.39056e-21 5.29101e-29
10350 345 0.0015 -0.0801475 -1.81318 0 5.54647e-14 -2.77917e-13 0 1.57149e-20 7.0906e-29
4776 160 0.0015 0.0772524 -1.81226 0 9.29248e-15 -3.04605e-13 0 5.42976e-21 1.58784e-28
8054 269 0.0015 0.146443 -1.81304 0 4.04157e-16 -1.58204e-15 0 0 2.64846e-33
4538 152 0.0015 0.356779 -1.81297 0 -1.37966e-14 9.13097e-14 0 0 2.37505e-29
10283 343 0.0015 0.433544 -1.81386 0 -1.18653e-13 -7.73594e-13 0 2.48474e-20 4.20374e-28
6011 201 0.0015 0.521089 -1.81283 0 -9.1891e-14 -2.36653e-13 0 0 8.77436e-29
1969 66 0.0015 0.00699599 -1.81136 0 -3.97718e-15 2.7113e-15 0 0 2.57555e-28
6546 219 0.0015 0.210443 -1.81113 0 7.21962e-15 -1.34588e-13 0 0 1.80459e-29
10211 341 0.0015 0.282098 -1.81148 0 -2.67855e-14 2.58706e-13 0 0 9.29976e-29
6043 202 0.0015 -0.371054 -1.8083 0 1.38875e-14 -2.06478e-14 0 0 9.02685e-31
10284 343 0.0015 0.434265 -1.8099 0 4.23497e-14 2.15855e-13 0 1.24237e-20 4.66164e-29
10175 340 0.0015 -0.252228 -1.80757 0 8.67593e-14 -1.22338e-13 0 6.39056e-21 3.50342e-29
8017 268 0.0015 -0.149712 -1.80745 0 4.54572e-15 1.21374e-14 0 0 1.5204e-30
1970 66 0.0015 0.00651585 -1.80658 0 -5.20212e-14 5.77439e-13 0 0 2.25201e-28
8055 269 0.0015 0.145748 -1.8063 0 1.90671e-16 -6.77267e-16 0 0 7.64555e-33
5942 199 0.0015 0.743061 -1.80618 0 5.33993e-14 2.12322e-13 0 2.60052e-21 7.56799e-29