ITEM: TIMESTEP
89440
ITEM: NUMBER OF ATOMS
10500
ITEM: BOX BOUNDS pp pp pp
-1.0249999999999999e+00 1.0249999999999999e+00
-2.0000000000000000e+00 2.0000000000000000e+00
-5.0000000000000003e-02 5.0000000000000003e-02
ITEM: ATOMS id type radius x y z fx fy fz c_bendingE c_stretchingE
10321 345 0.0015 -0.0605191 -1.90326 0 -1.40969e-12 7.60597e-12 0 0 5.27912e-26
6031 202 0.0015 -0.31342 -1.90111 0 6.95406e-13 -1.1246e-12 0 0 4.42113e-27
10322 345 0.0015 -0.061196 -1.90016 0 1.9697e-13 -4.69494e-12 0 1.57149e-20 6.12913e-26
8041 269 0.0015 0.155487 -1.90065 0 7.06059e-14 -6.10936e-13 0 0 7.11675e-28
10261 343 0.0015 0.417684 -1.90089 0 1.25233e-12 7.31048e-12 0 0 6.14433e-26
1471 50 0.0015 0.556864 -1.90052 0 -3.41794e-12 -4.62063e-12 0 0 3.36256e-26
10323 345 0.0015 -0.0618728 -1.89705 0 2.94223e-12 -8.42908e-12 0 3.14298e-20 3.77966e-26
1951 66 0.0015 0.0156385 -1.89738 0 -5.75021e-13 5.95468e-12 0 0 4.77464e-26
10262 343 0.0015 0.418405 -1.89694 0 -2.24983e-12 -1.39612e-11 0 0 1.11914e-25
1472 50 0.0015 0.559091 -1.8976 0 2.09789e-12 2.43994e-12 0 0 4.01645e-26
2641 89 0.0015 -0.570912 -1.89491 0 -1.65994e-12 1.07877e-12 0 0 5.07479e-27
1473 50 0.0015 0.561317 -1.89469 0 -3.67004e-13 1.55621e-12 0 0 8.89365e-27
2642 89 0.0015 -0.574633 -1.89206 0 2.72301e-12 -1.45082e-12 0 0 6.56603e-27
6032 202 0.0015 -0.318223 -1.89337 0 -1.7699e-12 2.86246e-12 0 0 1.49781e-26
10324 345 0.0015 -0.0625496 -1.89394 0 -3.8547e-12 1.43541e-11 0 4.71447e-20 1.022e-25
1952 66 0.0015 0.0151583 -1.8926 0 5.83064e-13 -6.34184e-12 0 5.20104e-21 4.79452e-26
8042 269 0.0015 0.154791 -1.89391 0 2.92537e-13 -3.1419e-12 0 0 2.74627e-26
10263 343 0.0015 0.419126 -1.89298 0 1.83705e-12 1.28456e-11 0 0 9.40362e-26
3540 118 0.0015 0.637977 -1.89243 0 1.20406e-12 3.61024e-13 0 0 1.22649e-27
6061 203 0.0015 -0.387409 -1.89062 0 4.58075e-12 7.23995e-13 0 0 8.18539e-27
10325 345 0.0015 -0.0632265 -1.89084 0 2.62788e-12 -1.14871e-11 0 4.71447e-20 7.9328e-26
10231 342 0.0015 0.215 -1.89 0 2.38459e-12 0 0 0 1.08912e-27
10232 342 0.0015 0.21569 -1.89 0 -3.76721e-12 0 0 0 1.45533e-27
10233 342 0.0015 0.216379 -1.89 0 2.82546e-12 0 0 0 7.64902e-28
10234 342 0.0015 0.217069 -1.89 0 -4.56407e-12 0 0 0 2.26499e-27
10235 342 0.0015 0.217759 -1.89 0 9.05548e-12 0 0 0 8.61202e-27
10236 342 0.0015 0.218448 -1.89 0 -1.03594e-11 0 0 0 1.04971e-26
10237 342 0.0015 0.219138 -1.89 0 9.38125e-12 0 0 0 8.45686e-27
10238 342 0.0015 0.219828 -1.89 0 -1.33293e-11 0 0 0 1.81368e-26
10239 342 0.0015 0.220517 -1.89 0 1.82912e-11 0 0 0 3.22769e-26
10240 342 0.0015 0.221207 -1.89 0 -1.95591e-11 0 0 0 3.66518e-26
10241 342 0.0015 0.221897 -1.89 0 1.90885e-11 0 0 0 3.49049e-26
10242 342 0.0015 0.222586 -1.89 0 -2.1298e-11 0 0 0 4.40017e-26
10243 342 0.0015 0.223276 -1.89 0 2.40148e-11 0 0 0 5.52487e-26
10244 342 0.0015 0.223966 -1.89 0 -2.32537e-11 0 0 0 5.19059e-26
10245 342 0.0015 0.224655 -1.89 0 2.16237e-11 0 0 0 4.48184e-26
10246 342 0.0015 0.225345 -1.89 0 -2.16237e-11 0 0 0 4.48184e-26
10247 342 0.0015 0.226034 -1.89 0 2.32537e-11 0 0 0 5.19059e-26
10248 342 0.0015 0.226724 -1.89 0 -2.40148e-11 0 0 0 5.52487e-26
10249 342 0.0015 0.227414 -1.89 0 2.1298e-11 0 0 0 4.40017e-26
10250 342 0.0015 0.228103 -1.89 0 -1.90885e-11 0 0 0 3.49049e-26
10251 342 0.0015 0.228793 -1.89 0 1.95591e-11 0 0 0 3.66518e-26
10252 342 0.0015 0.229483 -1.89 0 -1.82912e-11 0 0 0 3.22769e-26
10253 342 0.0015 0.230172 -1.89 0 1.33293e-11 0 0 0 1.81368e-26
10254 342 0.0015 0.230862 -1.89 0 -9.38125e-12 0 0 0 8.45686e-27
10255 342 0.0015 0.231552 -1.89 0 1.03594e-11 0 0 0 1.04971e-26
10256 342 0.0015 0.232241 -1.89 0 -9.05548e-12 0 0 0 8.61202e-27
10257 342 0.0015 0.232931 -1.89 0 4.56407e-12 0 0 0 2.26499e-27
10258 342 0.0015 0.233621 -1.89 0 -2.82546e-12 0 0 0 7.64902e-28
10259 342 0.0015 0.23431 -1.89 0 3.76721e-12 0 0 0 1.45533e-27
10260 342 0.0015 0.235 -1.89 0 -2.38459e-12 0 0 0 1.08912e-27
6001 201 0.0015 0.490936 -1.89052 0 -1.0412e-12 -2.75354e-12 0 0 2.00585e-26
1474 50 0.0015 0.563543 -1.89178 0 7.95382e-13 -2.02861e-12 0 0 9.50115e-27
3539 118 0.0015 0.640514 -1.89051 0 3.50922e-14 1.19465e-12 0 0 4.50335e-27
2643 89 0.0015 -0.578354 -1.8892 0 6.04323e-13 -1.08115e-12 0 0 7.83985e-27
6063 203 0.0015 -0.391043 -1.8889 0 9.96792e-12 -9.31382e-13 0 0 2.48314e-26
6064 203 0.0015 -0.392859 -1.88804 0 -9.28961e-12 7.32976e-12 0 2.48474e-20 3.93632e-26
6062 203 0.0015 -0.389226 -1.88976 0 -1.07806e-11 -2.0252e-12 0 0 2.23932e-26
10264 343 0.0015 0.419847 -1.88903 0 -1.44041e-12 -1.02204e-11 0 0 6.20507e-26
1475 50 0.0015 0.56577 -1.88887 0 4.26668e-12 8.16905e-12 0 6.81478e-21 4.92687e-26
3538 118 0.0015 0.643052 -1.8886 0 -2.39103e-12 -2.05328e-12 0 0 4.58939e-27
2644 89 0.0015 -0.582074 -1.88635 0 -4.5084e-12 3.26259e-12 0 0 2.10168e-26
6066 203 0.0015 -0.396492 -1.88631 0 1.86203e-12 -1.19536e-12 0 4.96948e-20 2.49036e-27
6065 203 0.0015 -0.394676 -1.88717 0 5.62953e-12 -4.67166e-12 0 4.96948e-20 2.87436e-26
7981 267 0.0015 -0.194876 -1.88635 0 -8.14388e-12 3.62098e-13 0 0 4.1437e-26
10326 345 0.0015 -0.0639033 -1.88773 0 3.60928e-13 -9.42008e-13 0 3.14298e-20 1.84793e-26
1953 66 0.0015 0.0146782 -1.88782 0 2.80248e-13 -2.6851e-12 0 5.20104e-21 1.29017e-26
8043 269 0.0015 0.154095 -1.88717 0 -3.13146e-13 3.43979e-12 0 0 2.69396e-26
3537 118 0.0015 0.645589 -1.88668 0 2.28692e-13 -5.36598e-13 0 0 2.94579e-27
6068 203 0.0015 -0.400126 -1.88459 0 1.25956e-11 7.07769e-12 0 0 1.97604e-26
6067 203 0.0015 -0.398309 -1.88545 0 -7.52979e-12 -2.43886e-12 0 2.48474e-20 9.91793e-27
6033 202 0.0015 -0.323025 -1.88564 0 1.21275e-12 -1.9851e-12 0 0 1.07595e-26
7983 267 0.0015 -0.199527 -1.8846 0 -3.6129e-12 -7.42067e-12 0 0 2.93961e-28
7982 267 0.0015 -0.197202 -1.88548 0 1.04825e-11 4.00436e-12 0 0 4.17224e-26
10327 345 0.0015 -0.0645802 -1.88463 0 -7.03234e-13 2.88221e-12 0 1.57149e-20 1.25233e-26
10265 343 0.0015 0.420568 -1.88507 0 1.02019e-12 5.24052e-12 0 2.48474e-20 2.02885e-26
1476 50 0.0015 0.567996 -1.88596 0 -1.35946e-12 -4.15626e-12 0 1.36296e-20 4.75292e-26
3536 118 0.0015 0.648126 -1.88476 0 3.49764e-12 1.70411e-12 0 0 6.96993e-27
2645 89 0.0015 -0.585795 -1.88349 0 4.36722e-12 -2.48555e-12 0 0 1.80976e-26
6071 203 0.0015 -0.405575 -1.882 0 -8.27045e-12 1.15087e-11 0 4.96948e-20 4.52449e-26
6070 203 0.0015 -0.403759 -1.88287 0 9.87781e-12 -5.52303e-12 0 4.96948e-20 3.99953e-26
6069 203 0.0015 -0.401942 -1.88373 0 -1.10437e-11 -3.76919e-12 0 2.48474e-20 1.98262e-26
7985 267 0.0015 -0.204179 -1.88284 0 -1.97732e-12 -1.82305e-12 0 0 7.47299e-27
7984 267 0.0015 -0.201853 -1.88372 0 4.40831e-12 3.28774e-12 0 0 5.61421e-27
1954 66 0.0015 0.0141981 -1.88304 0 -1.26058e-13 2.12821e-12 0 5.20104e-21 1.3921e-26
6002 201 0.0015 0.493952 -1.88275 0 1.289e-12 3.53159e-12 0 0 2.1596e-26
1477 50 0.0015 0.570222 -1.88304 0 -5.88783e-12 -5.3374e-12 0 1.36296e-20 3.63409e-26
3535 118 0.0015 0.650663 -1.88285 0 -7.13312e-12 -1.69032e-12 0 0 2.13108e-26
2646 89 0.0015 -0.589516 -1.88064 0 -9.29416e-13 9.0706e-14 0 0 4.32669e-27
6073 203 0.0015 -0.409209 -1.88028 0 5.31443e-13 7.65809e-12 0 0 2.19414e-27
6072 203 0.0015 -0.407392 -1.88114 0 1.46514e-12 -1.12528e-11 0 2.48474e-20 1.37948e-26
7988 267 0.0015 -0.211156 -1.8802 0 9.51617e-12 -9.3381e-12 0 0 5.33355e-26
7987 267 0.0015 -0.208831 -1.88108 0 -7.05584e-12 7.25387e-12 0 0 3.90172e-26
7986 267 0.0015 -0.206505 -1.88196 0 3.67324e-13 2.71383e-13 0 0 4.3393e-27
8011 268 0.0015 -0.176367 -1.88159 0 -7.81154e-14 -2.23612e-13 0 0 2.04614e-28
10328 345 0.0015 -0.065257 -1.88152 0 1.00774e-13 -2.84653e-13 0 0 1.4029e-27
8044 269 0.0015 0.1534 -1.88043 0 -5.00536e-13 4.81384e-12 0 0 3.8692e-26
10266 343 0.0015 0.421289 -1.88111 0 -3.11456e-13 1.0086e-12 0 3.72711e-20 7.24386e-27
1478 50 0.0015 0.572449 -1.88013 0 5.4119e-12 5.52838e-12 0 6.81478e-21 3.57155e-26
3534 118 0.0015 0.653201 -1.88093 0 7.28592e-12 9.61181e-13 0 0 2.00218e-26
10292 344 0.0015 -0.465124 -1.8785 0 8.22386e-12 3.191e-13 0 1.68424e-20 3.39839e-26
10291 344 0.0015 -0.4623 -1.87941 0 -1.67652e-12 -3.67939e-13 0 0 1.81359e-27
6074 203 0.0015 -0.411025 -1.87942 0 -4.39397e-13 -3.70182e-12 0 0 1.17923e-27
6075 203 0.0015 -0.412842 -1.87856 0 7.60316e-12 4.41893e-12 0 0 1.25406e-26
7990 267 0.0015 -0.215808 -1.87844 0 1.02063e-12 1.67452e-12 0 1.00459e-20 2.45816e-28
7989 267 0.0015 -0.213482 -1.87932 0 -5.02176e-12 2.24842e-12 0 0 1.70084e-26
10329 345 0.0015 -0.0659339 -1.87841 0 -1.9258e-12 7.69995e-12 0 0 4.30403e-26
1955 66 0.0015 0.0137179 -1.87827 0 -3.87718e-13 2.52059e-12 0 0 4.596e-27
10201 341 0.0015 0.290108 -1.87875 0 4.74382e-14 -1.26752e-13 0 0 3.25281e-29
3533 118 0.0015 0.655738 -1.87902 0 -1.79406e-12 2.38369e-12 0 0 8.11207e-27
2647 89 0.0015 -0.593237 -1.87778 0 -8.81278e-13 5.85174e-13 0 0 9.63485e-28
10294 344 0.0015 -0.470773 -1.87669 0 8.46386e-12 3.38517e-14 0 1.68424e-20 4.14803e-26
10293 344 0.0015 -0.467948 -1.87759 0 -1.37308e-11 6.41422e-13 0 1.68424e-20 7.27808e-26
6077 203 0.0015 -0.416475 -1.87683 0 2.10157e-12 1.23808e-11 0 4.96948e-20 6.60088e-27
6076 203 0.0015 -0.414658 -1.87769 0 -1.03716e-11 -1.0752e-11 0 2.48474e-20 1.25082e-26
6034 202 0.0015 -0.327828 -1.87791 0 -2.62641e-13 4.90973e-13 0 0 3.90511e-28
7992 267 0.0015 -0.22046 -1.87668 0 2.15436e-12 2.64186e-13 0 1.00459e-20 2.00741e-27
7991 267 0.0015 -0.218134 -1.87756 0 -1.33801e-12 6.714e-13 0 1.00459e-20 1.99757e-27
10267 343 0.0015 0.42201 -1.87716 0 -6.33852e-13 -5.7231e-12 0 3.72711e-20 1.94159e-26
1479 50 0.0015 0.574675 -1.87722 0 -3.94955e-12 -4.94884e-12 0 0 2.24301e-26
3532 118 0.0015 0.658275 -1.8771 0 -4.01183e-12 -5.72503e-12 0 0 2.19948e-26
2648 89 0.0015 -0.596958 -1.87493 0 2.9581e-12 -1.85067e-12 0 0 1.38095e-26
10296 344 0.0015 -0.476421 -1.87487 0 -5.23229e-14 8.77846e-15 0 0 1.86307e-26
10295 344 0.0015 -0.473597 -1.87578 0 1.7685e-12 -2.2145e-12 0 0 1.03305e-26
6080 203 0.0015 -0.421925 -1.87425 0 1.98455e-11 -1.23391e-11 0 0 1.69442e-25
6079 203 0.0015 -0.420108 -1.87511 0 -2.47511e-11 2.93824e-12 0 2.48474e-20 1.72902e-25
6078 203 0.0015 -0.418291 -1.87597 0 1.05876e-11 -4.13398e-12 0 4.96948e-20 4.1457e-26
7995 267 0.0015 -0.227437 -1.87404 0 -7.02523e-12 -6.82049e-12 0 0 9.45155e-27
7994 267 0.0015 -0.225111 -1.87492 0 1.81721e-12 8.33474e-12 0 0 2.25984e-27
7993 267 0.0015 -0.222785 -1.8758 0 -6.19979e-13 -5.9017e-12 0 0 2.13011e-27
10330 345 0.0015 -0.0666107 -1.87531 0 3.54784e-12 -1.32366e-11 0 0 8.27421e-26
6003 201 0.0015 0.496967 -1.87498 0 -6.82212e-13 -2.0894e-12 0 0 5.94367e-27
1480 50 0.0015 0.576901 -1.87431 0 5.43029e-12 7.93632e-12 0 0 4.77778e-26
3531 118 0.0015 0.660812 -1.87519 0 4.27072e-12 4.60618e-12 0 0 2.04164e-26
2649 89 0.0015 -0.600679 -1.87207 0 -7.36026e-12 5.50432e-12 0 0 5.97456e-26
10299 344 0.0015 -0.484893 -1.87215 0 3.30973e-12 -1.21532e-12 0 1.68424e-20 5.28566e-27
10298 344 0.0015 -0.482069 -1.87306 0 1.35988e-12 -2.42975e-12 0 1.68424e-20 1.16565e-26
10297 344 0.0015 -0.479245 -1.87396 0 -5.88888e-12 3.93922e-12 0 1.68424e-20 1.91233e-26
6082 203 0.0015 -0.425558 -1.87252 0 1.2408e-12 -8.18185e-12 0 0 6.02952e-27
6081 203 0.0015 -0.423741 -1.87338 0 -3.01657e-12 1.60473e-11 0 0 3.38741e-26
7997 267 0.0015 -0.232089 -1.87228 0 -9.567e-12 -9.57617e-12 0 0 1.06799e-26
7996 267 0.0015 -0.229763 -1.87316 0 9.79826e-12 7.6449e-12 0 0 1.46765e-26
10331 345 0.0015 -0.0672875 -1.8722 0 -2.6198e-12 7.70819e-12 0 0 4.21415e-26
1956 66 0.0015 0.0132378 -1.87349 0 4.8049e-13 -3.77788e-12 0 0 9.92822e-27
8045 269 0.0015 0.152704 -1.87369 0 3.73466e-13 -4.04007e-12 0 0 3.89124e-26
10202 341 0.0015 0.289307 -1.87202 0 1.58026e-14 -1.10872e-12 0 3.6872e-21 2.89953e-27
4531 152 0.0015 0.366216 -1.8733 0 4.41343e-13 -2.75069e-12 0 0 1.88064e-26
10268 343 0.0015 0.422731 -1.8732 0 1.66488e-12 8.97666e-12 0 1.24237e-20 4.89131e-26
3530 118 0.0015 0.66335 -1.87327 0 1.81956e-12 1.05421e-12 0 0 1.50053e-26
10301 344 0.0015 -0.490541 -1.87033 0 -9.73322e-13 -3.01038e-12 0 0 3.72825e-27
10300 344 0.0015 -0.487717 -1.87124 0 -2.74942e-12 3.16698e-12 0 0 5.43956e-27
6084 203 0.0015 -0.429191 -1.8708 0 8.55979e-13 7.40365e-12 0 0 2.47935e-27
6083 203 0.0015 -0.427374 -1.87166 0 -4.00909e-12 -3.30744e-12 0 0 3.6076e-27
6035 202 0.0015 -0.332631 -1.87017 0 1.12271e-12 -1.846e-12 0 0 9.20045e-27
7999 267 0.0015 -0.23674 -1.87052 0 -1.4622e-11 -1.95003e-12 0 0 5.93722e-26
7998 267 0.0015 -0.234415 -1.8714 0 1.31416e-11 6.01781e-12 0 0 4.30721e-26
1481 50 0.0015 0.579128 -1.8714 0 -3.23999e-12 -5.28355e-12 0 0 3.06651e-26
3529 118 0.0015 0.665887 -1.87136 0 -6.02887e-12 -4.11455e-12 0 0 2.34958e-26
2650 89 0.0015 -0.6044 -1.86922 0 6.24101e-12 -5.08654e-12 0 0 5.17786e-26
10303 344 0.0015 -0.49619 -1.86852 0 -2.38998e-12 -2.08919e-12 0 1.68424e-20 4.1987e-27
10302 344 0.0015 -0.493366 -1.86943 0 4.4651e-12 1.81541e-12 0 0 5.81859e-27
6087 203 0.0015 -0.434641 -1.86821 0 6.52188e-12 6.17173e-12 0 4.96948e-20 5.6697e-27
6085 203 0.0015 -0.431008 -1.86994 0 3.92684e-12 -2.03683e-12 0 2.48474e-20 5.47613e-27
6086 203 0.0015 -0.432824 -1.86908 0 -8.23323e-12 -4.46771e-12 0 2.48474e-20 8.72057e-27
8001 267 0.0015 -0.241392 -1.86876 0 -5.3681e-12 6.63985e-13 0 0 9.60311e-27
8000 267 0.0015 -0.239066 -1.86964 0 9.2787e-12 1.90362e-12 0 0 2.56156e-26
8012 268 0.0015 -0.171924 -1.86923 0 6.72273e-16 1.76984e-14 0 0 3.81096e-28
10332 345 0.0015 -0.0679644 -1.86909 0 1.77584e-12 -5.91341e-12 0 0 2.22796e-26
1957 66 0.0015 0.0127576 -1.86871 0 -3.98833e-13 3.55135e-12 0 0 9.00937e-27
10269 343 0.0015 0.423451 -1.86924 0 -2.44417e-12 -1.08009e-11 0 1.24237e-20 6.83789e-26
1482 50 0.0015 0.581354 -1.86848 0 -1.09636e-12 -7.48779e-13 0 0 4.55325e-27
3528 118 0.0015 0.668424 -1.86944 0 -1.69944e-12 -3.13375e-12 0 0 5.14519e-26
2651 89 0.0015 -0.608121 -1.86636 0 3.84543e-13 2.40472e-14 0 0 1.32558e-26
10305 344 0.0015 -0.501838 -1.8667 0 5.53283e-12 -1.08257e-12 0 1.68424e-20 1.62215e-26
10304 344 0.0015 -0.499014 -1.86761 0 -4.04586e-12 2.99593e-12 0 1.68424e-20 1.48974e-26
6089 203 0.0015 -0.438274 -1.86649 0 -4.09558e-12 4.68751e-13 0 2.48474e-20 1.21559e-26
6088 203 0.0015 -0.436457 -1.86735 0 2.80746e-12 -4.69622e-12 0 2.48474e-20 1.18767e-26
8004 267 0.0015 -0.248369 -1.86612 0 5.93942e-12 -7.19752e-13 0 0 1.2169e-26
8003 267 0.0015 -0.246044 -1.867 0 -4.6926e-12 4.97482e-12 0 0 1.33242e-26
8002 267 0.0015 -0.243718 -1.86788 0 3.97397e-12 -4.97491e-12 0 0 1.03741e-26
8046 269 0.0015 0.152008 -1.86695 0 4.41605e-13 -3.68288e-12 0 0 2.01954e-26
6004 201 0.0015 0.499982 -1.86721 0 9.22757e-13 2.83087e-12 0 5.99535e-21 1.02822e-26
3527 118 0.0015 0.670962 -1.86752 0 1.21663e-11 1.29669e-11 0 0 1.42582e-25
10307 344 0.0015 -0.507486 -1.86489 0 7.44366e-13 4.02732e-12 0 0 2.85389e-27
10306 344 0.0015 -0.504662 -1.8658 0 -6.52299e-13 -2.58116e-12 0 0 3.55858e-27
6090 203 0.0015 -0.440091 -1.86563 0 -1.70329e-13 1.29662e-12 0 0 2.81316e-28
8006 267 0.0015 -0.253021 -1.86436 0 5.522e-12 1.74615e-12 0 1.00459e-20 7.93253e-27
8005 267 0.0015 -0.250695 -1.86524 0 -5.15649e-12 -2.85413e-12 0 0 5.23231e-27
10333 345 0.0015 -0.0686412 -1.86599 0 -2.20088e-12 1.19401e-11 0 0 6.76387e-26
10203 341 0.0015 0.288506 -1.8653 0 -1.70948e-14 1.53732e-12 0 7.37441e-21 3.02998e-27
4532 152 0.0015 0.364868 -1.86469 0 -4.91507e-13 2.96166e-12 0 0 1.89196e-26
10270 343 0.0015 0.424172 -1.86529 0 1.60107e-12 4.87402e-12 0 2.48474e-20 3.36103e-26
1483 50 0.0015 0.58358 -1.86557 0 1.53303e-13 3.28476e-13 0 0 6.72997e-27
3526 118 0.0015 0.673499 -1.86561 0 -1.21316e-11 -1.41559e-11 0 0 1.51234e-25
2652 89 0.0015 -0.611842 -1.86351 0 -5.16938e-12 4.06376e-12 0 0 3.02316e-26
10310 344 0.0015 -0.515959 -1.86217 0 -6.96682e-12 5.03873e-12 0 1.68424e-20 2.76113e-26
10309 344 0.0015 -0.513134 -1.86307 0 7.57079e-12 -8.05741e-13 0 0 2.29234e-26
10308 344 0.0015 -0.51031 -1.86398 0 -5.70163e-12 -2.64337e-12 0 0 1.15001e-26
6036 202 0.0015 -0.337434 -1.86244 0 -1.3035e-12 2.01312e-12 0 0 9.67024e-27
8008 267 0.0015 -0.257673 -1.8626 0 7.18571e-12 -6.12633e-13 0 2.00918e-20 1.66293e-26
8007 267 0.0015 -0.255347 -1.86348 0 -6.47847e-12 1.05528e-12 0 1.00459e-20 1.43391e-26
10334 345 0.0015 -0.0693181 -1.86288 0 1.23508e-12 -8.96162e-12 0 0 4.95211e-26
1958 66 0.0015 0.0122775 -1.86393 0 2.55796e-13 -2.37621e-12 0 0 3.88059e-27
1484 50 0.0015 0.585807 -1.86266 0 2.76275e-12 2.3108e-12 0 0 6.31733e-27
3525 118 0.0015 0.676036 -1.86369 0 1.21316e-11 1.41559e-11 0 0 1.51234e-25
2653 89 0.0015 -0.615563 -1.86065 0 4.54241e-12 -3.96028e-12 0 0 2.7142e-26
10312 344 0.0015 -0.521607 -1.86035 0 -3.67134e-12 4.063e-12 0 5.05273e-20 1.09207e-26
10311 344 0.0015 -0.518783 -1.86126 0 5.87341e-12 -6.85114e-12 0 3.36849e-20 2.4709e-26
8010 267 0.0015 -0.262324 -1.86085 0 2.24999e-12 8.37415e-13 0 1.00459e-20 2.25852e-27
8009 267 0.0015 -0.259998 -1.86172 0 -6.17654e-12 -1.22504e-12 0 1.00459e-20 1.08925e-26
8047 269 0.0015 0.151313 -1.86021 0 -2.75997e-13 2.07905e-12 0 0 2.22585e-26
10271 343 0.0015 0.424893 -1.86133 0 -7.70796e-14 2.82285e-12 0 2.48474e-20 6.46435e-27
3524 118 0.0015 0.678573 -1.86178 0 -1.21663e-11 -1.29669e-11 0 0 1.42582e-25
10314 344 0.0015 -0.527255 -1.85854 0 -3.36909e-12 -4.86331e-12 0 3.36849e-20 1.59186e-27
10313 344 0.0015 -0.524431 -1.85944 0 2.14988e-12 9.82864e-13 0 3.36849e-20 1.65037e-27
10335 345 0.0015 -0.0699949 -1.85978 0 6.76171e-13 -1.6309e-12 0 0 1.33002e-26
1959 66 0.0015 0.0117974 -1.85915 0 -2.66987e-13 2.34781e-12 0 0 3.78325e-27
4771 160 0.0015 0.0785585 -1.85825 0 2.83922e-14 -1.08252e-12 0 0 2.99719e-27
10204 341 0.0015 0.287705 -1.85857 0 -3.09273e-13 1.71154e-12 0 7.37441e-21 7.92096e-27
6005 201 0.0015 0.502997 -1.85945 0 -5.64472e-13 -1.91464e-12 0 1.19907e-20 6.23876e-27
1485 50 0.0015 0.588033 -1.85975 0 -4.66952e-13 1.42071e-12 0 0 1.1174e-26
3523 118 0.0015 0.681111 -1.85986 0 1.69944e-12 3.13375e-12 0 0 5.14519e-26
2654 89 0.0015 -0.619284 -1.8578 0 -8.50984e-13 1.48449e-12 0 5.32605e-21 4.47596e-27
10316 344 0.0015 -0.532903 -1.85672 0 -8.67425e-13 -2.63556e-12 0 1.68424e-20 6.30359e-27
10315 344 0.0015 -0.530079 -1.85763 0 5.26843e-12 5.6046e-12 0 1.68424e-20 4.6537e-27
8013 268 0.0015 -0.167482 -1.85688 0 1.40001e-14 3.67898e-14 0 0 2.95462e-28
10336 345 0.0015 -0.0706718 -1.85667 0 -1.05354e-12 5.79398e-12 0 0 1.5789e-26
4533 152 0.0015 0.36352 -1.85607 0 4.15798e-14 -1.14131e-13 0 0 1.36063e-28
10272 343 0.0015 0.425614 -1.85738 0 -4.87692e-13 -3.86182e-12 0 2.48474e-20 8.85132e-27
1486 50 0.0015 0.59026 -1.85684 0 4.66952e-13 -1.42071e-12 0 0 1.1174e-26
3522 118 0.0015 0.683648 -1.85795 0 6.02887e-12 4.11455e-12 0 0 2.34958e-26
3521 118 0.0015 0.686185 -1.85603 0 -1.81956e-12 -1.05421e-12 0 0 1.50053e-26
2655 89 0.0015 -0.623004 -1.85494 0 -1.87982e-12 2.26856e-13 0 5.32605e-21 2.54056e-27
10318 344 0.0015 -0.538552 -1.85491 0 5.99853e-12 4.29253e-12 0 1.68424e-20 1.35203e-26
10317 344 0.0015 -0.535727 -1.85581 0 -6.81401e-12 -1.65728e-12 0 0 1.65317e-26
6037 202 0.0015 -0.342237 -1.85471 0 8.85621e-14 2.30984e-14 0 0 1.2476e-27
1960 66 0.0015 0.0113172 -1.85437 0 2.61894e-13 -1.82854e-12 0 0 2.71563e-27
3520 118 0.0015 0.688722 -1.85412 0 -4.27072e-12 -4.60618e-12 0 0 2.04164e-26
2656 89 0.0015 -0.626725 -1.85209 0 2.30238e-12 -7.54453e-13 0 1.06521e-20 3.54122e-27
10320 344 0.0015 -0.5442 -1.85309 0 -6.39742e-12 3.08632e-12 0 1.68424e-20 4.07782e-26
10319 344 0.0015 -0.541376 -1.854 0 5.21802e-12 -5.56884e-12 0 1.68424e-20 4.0887e-26
10337 345 0.0015 -0.0713486 -1.85356 0 1.20566e-13 -3.77374e-12 0 0 6.63547e-27
8048 269 0.0015 0.150617 -1.85348 0 -5.81027e-13 5.97573e-12 0 0 4.68787e-26
10273 343 0.0015 0.426335 -1.85342 0 4.30342e-13 2.02047e-12 0 1.24237e-20 2.89682e-27
1487 50 0.0015 0.592486 -1.85392 0 -2.76275e-12 -2.3108e-12 0 0 6.31733e-27
3519 118 0.0015 0.69126 -1.8522 0 4.01183e-12 5.72503e-12 0 0 2.19948e-26
10338 345 0.0015 -0.0720254 -1.85046 0 3.41006e-13 3.88035e-12 0 0 6.66063e-27
10205 341 0.0015 0.286904 -1.85184 0 6.75648e-13 -5.55128e-12 0 3.6872e-21 3.16329e-26
6006 201 0.0015 0.506013 -1.85168 0 -5.60395e-13 -1.15954e-12 0 1.7986e-20 6.8931e-27
1488 50 0.0015 0.594712 -1.85101 0 -1.53303e-13 -3.28476e-13 0 0 6.72997e-27
3518 118 0.0015 0.693797 -1.85028 0 1.79406e-12 -2.38369e-12 0 0 8.11207e-27
2657 89 0.0015 -0.630446 -1.84923 0 -4.07007e-12 2.85559e-12 0 5.32605e-21 2.24996e-26
1961 66 0.0015 0.0108371 -1.84959 0 -1.04338e-12 8.80433e-12 0 0 9.33611e-26
4772 160 0.0015 0.0782973 -1.84905 0 -9.61389e-14 3.55434e-12 0 0 1.8625e-26
10274 343 0.0015 0.427056 -1.84946 0 -9.10228e-13 -3.84185e-12 0 1.24237e-20 1.31829e-26
1489 50 0.0015 0.596939 -1.8481 0 1.09636e-12 7.48779e-13 0 0 4.55325e-27
3517 118 0.0015 0.696334 -1.84837 0 -7.28592e-12 -9.61181e-13 0 0 2.00218e-26
2658 89 0.0015 -0.634167 -1.84638 0 6.30524e-12 -4.92821e-12 0 5.32605e-21 4.17225e-26
6038 202 0.0015 -0.34704 -1.84697 0 1.00112e-12 -1.74285e-12 0 0 6.47702e-27
10339 345 0.0015 -0.0727023 -1.84735 0 3.87131e-13 -7.20917e-12 0 0 2.47336e-26
8049 269 0.0015 0.149922 -1.84674 0 1.11487e-12 -1.06828e-11 0 0 1.09542e-25
6541 219 0.0015 0.213251 -1.84656 0 1.41488e-13 -2.04649e-12 0 0 8.30884e-27
4534 152 0.0015 0.362172 -1.84745 0 -2.87903e-13 1.83961e-12 0 0 9.32235e-27
3516 118 0.0015 0.698871 -1.84645 0 7.13312e-12 1.69032e-12 0 0 2.13108e-26
8014 268 0.0015 -0.163039 -1.84452 0 2.55485e-13 6.83577e-13 0 0 1.21866e-27
10340 345 0.0015 -0.0733791 -1.84424 0 -1.29214e-12 7.67682e-12 0 0 2.78823e-26
1962 66 0.0015 0.010357 -1.84481 0 1.90787e-12 -1.6728e-11 0 5.20104e-21 1.8907e-25
10206 341 0.0015 0.286103 -1.84511 0 -6.03081e-13 5.1821e-12 0 0 2.90307e-26
10275 343 0.0015 0.427777 -1.84551 0 2.16484e-12 9.77662e-12 0 0 6.17314e-26
1490 50 0.0015 0.599165 -1.84519 0 3.23999e-12 5.28355e-12 0 0 3.06651e-26
3515 118 0.0015 0.701409 -1.84454 0 -3.49764e-12 -1.70411e-12 0 0 6.96993e-27
2659 89 0.0015 -0.637888 -1.84352 0 -2.22539e-12 1.6337e-12 0 5.32605e-21 2.21488e-26
6007 201 0.0015 0.509028 -1.84391 0 2.1683e-12 5.45526e-12 0 1.19907e-20 4.71794e-26
1491 50 0.0015 0.601391 -1.84228 0 -5.43029e-12 -7.93632e-12 0 0 4.77778e-26
3514 118 0.0015 0.703946 -1.84262 0 -2.28692e-13 5.36598e-13 0 0 2.94579e-27
2660 89 0.0015 -0.641609 -1.84066 0 -4.52813e-12 3.65928e-12 0 5.32605e-21 2.97899e-26
10341 345 0.0015 -0.074056 -1.84114 0 -1.57625e-13 2.82865e-12 0 0 3.87119e-26
1963 66 0.0015 0.00987681 -1.84004 0 -1.47343e-12 1.261e-11 0 5.20104e-21 1.19693e-25
10276 343 0.0015 0.428498 -1.84155 0 -2.16484e-12 -9.77662e-12 0 0 6.17314e-26
3513 118 0.0015 0.706483 -1.84071 0 2.39103e-12 2.05328e-12 0 0 4.58939e-27
6039 202 0.0015 -0.351842 -1.83924 0 -7.96367e-13 1.34009e-12 0 0 5.88995e-27
10342 345 0.0015 -0.0747328 -1.83803 0 1.44669e-12 -1.02495e-11 0 0 4.79282e-26
4773 160 0.0015 0.0780361 -1.83985 0 1.56054e-13 -5.5163e-12 0 0 3.93378e-26
8050 269 0.0015 0.149226 -1.84 0 -7.89878e-13 7.21414e-12 0 0 6.86876e-26
6542 219 0.0015 0.21269 -1.83947 0 7.78673e-14 8.92665e-15 0 3.51396e-21 1.65955e-26
10207 341 0.0015 0.285302 -1.83839 0 2.1889e-13 -1.98153e-12 0 0 5.37121e-27
4535 152 0.0015 0.360823 -1.83883 0 6.64993e-13 -4.36305e-12 0 0 2.38971e-26
1492 50 0.0015 0.603618 -1.83936 0 3.94955e-12 4.94884e-12 0 0 2.24301e-26
3512 118 0.0015 0.70902 -1.83879 0 -3.50922e-14 -1.19465e-12 0 0 4.50335e-27
2661 89 0.0015 -0.64533 -1.83781 0 4.08629e-12 -2.96979e-12 0 5.32605e-21 2.81781e-26
10277 343 0.0015 0.429219 -1.8376 0 9.10228e-13 3.84185e-12 0 1.24237e-20 1.31829e-26
6008 201 0.0015 0.512043 -1.83614 0 -2.97097e-12 -7.67658e-12 0 5.99535e-21 7.84458e-26
1493 50 0.0015 0.605844 -1.83645 0 -5.4119e-12 -5.52838e-12 0 6.81478e-21 3.57155e-26
3511 118 0.0015 0.711558 -1.83688 0 -1.20406e-12 -3.61024e-13 0 0 1.22649e-27
2662 89 0.0015 -0.649051 -1.83495 0 2.8041e-12 -2.96748e-12 0 0 2.6016e-26
10343 345 0.0015 -0.0754097 -1.83493 0 -1.29989e-12 1.05507e-11 0 0 5.07141e-26
1964 66 0.0015 0.00939668 -1.83526 0 7.12565e-13 -6.33698e-12 0 5.20104e-21 2.99007e-26
2663 89 0.0015 -0.652772 -1.8321 0 -5.02741e-12 4.66239e-12 0 0 3.31542e-26
10171 340 0.0015 -0.234195 -1.83312 0 -5.66565e-13 7.97375e-13 0 0 2.07777e-27
8015 268 0.0015 -0.158597 -1.83216 0 6.55006e-13 1.84553e-12 0 1.90242e-21 2.40309e-26
8051 269 0.0015 0.14853 -1.83326 0 1.64029e-13 -1.11411e-12 0 0 3.66905e-27
6543 219 0.0015 0.212128 -1.83239 0 -2.67712e-13 1.84647e-12 0 3.51396e-21 8.35543e-27
10278 343 0.0015 0.429939 -1.83364 0 -4.30342e-13 -2.02047e-12 0 1.24237e-20 2.89682e-27
1494 50 0.0015 0.60807 -1.83354 0 5.88783e-12 5.3374e-12 0 1.36296e-20 3.63409e-26
6040 202 0.0015 -0.356645 -1.83151 0 -1.6566e-12 2.68978e-12 0 0 2.57638e-26
10344 345 0.0015 -0.0760865 -1.83182 0 3.29899e-12 -2.00169e-11 0 0 2.09515e-25
1965 66 0.0015 0.00891654 -1.83048 0 -3.0944e-13 3.66979e-12 0 0 9.32994e-27
4774 160 0.0015 0.0777749 -1.83066 0 -1.52733e-13 5.17521e-12 0 0 3.53241e-26
10208 341 0.0015 0.284501 -1.83166 0 4.30249e-15 1.80264e-13 0 0 2.63443e-28
4536 152 0.0015 0.359475 -1.83021 0 -2.9103e-13 1.85905e-12 0 0 1.53923e-26
1495 50 0.0015 0.610297 -1.83063 0 1.35946e-12 4.15626e-12 0 1.36296e-20 4.75292e-26
2664 89 0.0015 -0.656493 -1.82924 0 2.64876e-12 -2.03693e-12 0 0 8.57565e-27
10345 345 0.0015 -0.0767633 -1.82871 0 -5.13024e-12 2.61572e-11 0 0 3.14739e-25
10279 343 0.0015 0.43066 -1.82968 0 4.87692e-13 3.86182e-12 0 2.48474e-20 8.85132e-27
6009 201 0.0015 0.515058 -1.82837 0 1.96099e-12 5.382e-12 0 0 4.43767e-26
2665 89 0.0015 -0.660213 -1.82639 0 -5.56415e-13 -2.60333e-14 0 0 1.58714e-27
10172 340 0.0015 -0.238704 -1.82673 0 2.70518e-12 -3.85843e-12 0 6.39056e-21 3.23573e-26
8052 269 0.0015 0.147835 -1.82652 0 -1.10987e-13 7.8724e-13 0 0 2.16521e-27
1496 50 0.0015 0.612523 -1.82772 0 -4.26668e-12 -8.16905e-12 0 6.81478e-21 4.92687e-26
10346 345 0.0015 -0.0774402 -1.82561 0 4.52785e-12 -1.93739e-11 0 0 1.86432e-25
1966 66 0.0015 0.0084364 -1.8257 0 4.02353e-13 -4.92104e-12 0 0 1.8684e-26
6544 219 0.0015 0.211567 -1.8253 0 -3.02921e-13 5.01241e-12 0 3.51396e-21 4.62119e-26
10209 341 0.0015 0.2837 -1.82493 0 1.4144e-13 -1.43702e-12 0 0 4.88663e-27
10280 343 0.0015 0.431381 -1.82573 0 7.70796e-14 -2.82285e-12 0 2.48474e-20 6.46435e-27
1497 50 0.0015 0.614749 -1.8248 0 -7.95382e-13 2.02861e-12 0 0 9.50115e-27
2666 89 0.0015 -0.663934 -1.82353 0 -2.32452e-12 2.1019e-12 0 0 9.08722e-27
6041 202 0.0015 -0.361448 -1.82377 0 2.81986e-12 -4.65554e-12 0 2.74394e-21 3.85733e-26
10347 345 0.0015 -0.078117 -1.8225 0 -3.76396e-12 1.33354e-11 0 1.57149e-20 8.484e-26
2667 89 0.0015 -0.667655 -1.82068 0 3.6526e-12 -3.1686e-12 0 5.32605e-21 1.52535e-26
10173 340 0.0015 -0.243212 -1.82034 0 -3.04656e-12 4.44759e-12 0 6.39056e-21 3.62374e-26
1967 66 0.0015 0.00795626 -1.82092 0 -4.43635e-13 4.96016e-12 0 0 1.88605e-26
4775 160 0.0015 0.0775136 -1.82146 0 6.25501e-14 -1.93914e-12 0 0 1.1708e-26
4537 152 0.0015 0.358127 -1.82159 0 -7.47252e-14 7.51121e-13 0 0 8.7412e-28
10281 343 0.0015 0.432102 -1.82177 0 -1.60107e-12 -4.87402e-12 0 2.48474e-20 3.36103e-26
6010 201 0.0015 0.518074 -1.8206 0 -4.28663e-13 -1.60258e-12 0 0 6.58311e-27
1498 50 0.0015 0.616976 -1.82189 0 3.67004e-13 -1.55621e-12 0 0 8.89365e-27
8016 268 0.0015 -0.154154 -1.81981 0 -1.61484e-12 -4.48894e-12 0 1.90242e-21 4.1613e-26
10348 345 0.0015 -0.0787939 -1.81939 0 2.33212e-12 -7.92533e-12 0 1.57149e-20 3.96215e-26
8053 269 0.0015 0.147139 -1.81978 0 8.5711e-14 -7.59623e-13 0 0 2.19508e-27
6545 219 0.0015 0.211005 -1.81821 0 5.06538e-13 -6.80998e-12 0 0 5.40001e-26
10210 341 0.0015 0.282899 -1.8182 0 -3.12248e-13 2.82202e-12 0 0 7.71199e-27
1499 50 0.0015 0.619202 -1.81898 0 -2.09789e-12 -2.43994e-12 0 0 4.01645e-26
2668 89 0.0015 -0.671376 -1.81782 0 1.50561e-13 6.53314e-13 0 1.06521e-20 1.15628e-26
6042 202 0.0015 -0.366251 -1.81604 0 -7.88996e-13 1.41269e-12 0 2.74394e-21 1.38304e-26
10349 345 0.0015 -0.0794707 -1.81629 0 -5.03015e-13 1.92109e-12 0 1.57149e-20 2.8453e-27
1968 66 0.0015 0.00747613 -1.81614 0 2.90896e-14 -4.91843e-13 0 0 4.75044e-27
10282 343 0.0015 0.432823 -1.81781 0 2.44417e-12 1.08009e-11 0 1.24237e-20 6.83789e-26
1500 50 0.0015 0.621428 -1.81607 0 3.41794e-12 4.62063e-12 0 0 3.36256e-26
2669 89 0.0015 -0.675097 -1.81497 0 -3.87641e-12 2.19428e-12 0 1.06521e-20 1.28288e-26
5941 199 0.0015 0.740778 -1.81551 0 4.45656e-13 1.82526e-12 0 2.60052e-21 9.41946e-27
2670 89 0.0015 -0.678818 -1.81211 0 2.07726e-12 -1.31466e-12 0 5.32605e-21 7.80945e-27
10174 340 0.0015 -0.24772 -1.81396 0 -6.95185e-13 7.93856e-13 0 6.39056e-21 2.1857e-26
10350 345 0.0015 -0.0801475 -1.81318 0 -3.55797e-15 -2.05825e-13 0 0 3.54529e-29
4776 160 0.0015 0.0772524 -1.81226 0 5.97734e-14 -2.38412e-12 0 0 1.23888e-26
8054 269 0.0015 0.146443 -1.81304 0 2.79528e-14 -3.78676e-13 0 0 1.65488e-28
4538 152 0.0015 0.356779 -1.81297 0 -1.92546e-13 9.50604e-13 0 0 3.28337e-27
10283 343 0.0015 0.433544 -1.81386 0 -1.66488e-12 -8.97666e-12 0 1.24237e-20 4.89131e-26
6011 201 0.0015 0.521089 -1.81283 0 -1.15131e-12 -2.74438e-12 0 5.99535e-21 1.99851e-26
1969 66 0.0015 0.00699599 -1.81136 0 4.20934e-13 -4.16547e-12 0 0 1.45129e-26
6546 219 0.0015 0.210443 -1.81113 0 -1.0189e-13 1.27645e-12 0 3.51396e-21 8.86429e-27
10211 341 0.0015 0.282098 -1.81148 0 -6.21291e-14 5.46931e-13 0 0 8.87696e-27
6043 202 0.0015 -0.371054 -1.8083 0 -1.17551e-12 1.82493e-12 0 2.74394e-21 6.98377e-27
10284 343 0.0015 0.434265 -1.8099 0 6.33852e-13 5.7231e-12 0 3.72711e-20 1.94159e-26
10175 340 0.0015 -0.252228 -1.80757 0 2.45403e-12 -3.31168e-12 0 0 2.02466e-26
8017 268 0.0015 -0.149712 -1.80745 0 1.27707e-13 3.56394e-13 0 1.90242e-21 3.16361e-26
1970 66 0.0015 0.00651585 -1.80658 0 -1.28453e-13 1.48827e-12 0 5.20104e-21 1.65339e-26
8055 269 0.0015 0.145748 -1.8063 0 -3.4954e-14 6.46921e-13 0 0 5.81116e-28
5942 199 0.0015 0.743061 -1.80618 0 -9.85806e-13 -4.03449e-12 0 2.60052e-21 2.32211e-26
6547 219 0.0015 0.209882 -1.80404 0 -1.95573e-13 2.58228e-12 0 3.51396e-21 7.9529e-27
10212 341 0.0015 0.281297 -1.80475 0 4.87942e-13 -4.42287e-12 0 0 1.93533e-26
4539 152 0.0015 0.35543 -1.80435 0 4.48201e-14 -2.88254e-13 0 0 4.98858e-27
10285 343 0.0015 0.434986 -1.80595 0 3.11456e-13 -1.0086e-12 0 3.72711e-20 7.24386e-27
6012 201 0.0015 0.524104 -1.80507 0 1.57062e-12 4.27342e-12 0 5.99535e-21 2.60123e-26