ITEM: TIMESTEP
115670
ITEM: NUMBER OF ATOMS
10500
ITEM: BOX BOUNDS pp pp pp
-1.0249999999999999e+00 1.0249999999999999e+00
-2.0000000000000000e+00 2.0000000000000000e+00
-5.0000000000000003e-02 5.0000000000000003e-02
ITEM: ATOMS id type radius x y z fx fy fz c_bendingE c_stretchingE
10321 345 0.0015 -0.0605191 -1.90326 0 -1.00738e-12 4.69543e-12 0 0 2.03656e-26
6031 202 0.0015 -0.31342 -1.90111 0 -6.76442e-13 1.14142e-12 0 0 4.44985e-27
10322 345 0.0015 -0.061196 -1.90016 0 -2.74875e-13 2.15923e-12 0 1.57149e-20 6.32739e-26
8041 269 0.0015 0.155487 -1.90065 0 -6.52363e-14 5.94229e-13 0 0 6.72492e-28
10261 343 0.0015 0.417684 -1.90089 0 -1.90272e-13 -1.89568e-12 0 0 4.02861e-27
1471 50 0.0015 0.556864 -1.90052 0 -2.29132e-12 -3.02696e-12 0 0 1.46749e-26
10323 345 0.0015 -0.0618728 -1.89705 0 4.42083e-13 -4.57027e-12 0 1.57149e-20 4.80412e-26
1951 66 0.0015 0.0156385 -1.89738 0 7.69755e-13 -7.44775e-12 0 0 7.47928e-26
10262 343 0.0015 0.418405 -1.89694 0 -1.25318e-13 2.39142e-12 0 1.24237e-20 4.23625e-27
1472 50 0.0015 0.559091 -1.8976 0 3.76195e-13 1.04002e-12 0 0 2.23285e-26
2641 89 0.0015 -0.570912 -1.89491 0 -1.84577e-12 1.35524e-12 0 0 6.82836e-27
1473 50 0.0015 0.561317 -1.89469 0 2.20409e-12 1.26592e-12 0 0 7.81436e-27
2642 89 0.0015 -0.574633 -1.89206 0 4.49784e-12 -3.506e-12 0 0 2.20073e-26
6032 202 0.0015 -0.318223 -1.89337 0 1.06459e-12 -1.86009e-12 0 0 6.13075e-27
10324 345 0.0015 -0.0625496 -1.89394 0 1.98257e-12 -7.87383e-12 0 3.14298e-20 3.38701e-26
1952 66 0.0015 0.0151583 -1.8926 0 -1.04558e-12 9.92209e-12 0 0 8.30614e-26
8042 269 0.0015 0.154791 -1.89391 0 -4.82628e-14 5.36789e-13 0 3.6872e-21 3.10403e-27
10263 343 0.0015 0.419126 -1.89298 0 1.73797e-12 5.4436e-12 0 1.24237e-20 4.17468e-26
3540 118 0.0015 0.637977 -1.89243 0 -4.83018e-12 -2.4382e-12 0 0 2.50317e-26
6061 203 0.0015 -0.387409 -1.89062 0 -4.44139e-12 -4.87739e-12 0 0 2.06319e-27
10325 345 0.0015 -0.0632265 -1.89084 0 -6.84035e-13 5.61153e-12 0 1.57149e-20 2.87423e-26
10231 342 0.0015 0.215 -1.89 0 1.91349e-12 0 0 0 7.01425e-28
10232 342 0.0015 0.21569 -1.89 0 -5.94047e-12 0 0 0 3.80771e-27
10233 342 0.0015 0.216379 -1.89 0 9.16437e-12 0 0 0 8.16192e-27
10234 342 0.0015 0.217069 -1.89 0 -8.9466e-12 0 0 0 7.83567e-27
10235 342 0.0015 0.217759 -1.89 0 5.79559e-12 0 0 0 3.53558e-27
10236 342 0.0015 0.218448 -1.89 0 -5.61493e-12 0 0 0 3.27753e-27
10237 342 0.0015 0.219138 -1.89 0 8.51239e-12 0 0 0 7.09089e-27
10238 342 0.0015 0.219828 -1.89 0 -1.06492e-11 0 0 0 1.09366e-26
10239 342 0.0015 0.220517 -1.89 0 8.76571e-12 0 0 0 8.09199e-27
10240 342 0.0015 0.221207 -1.89 0 -7.71486e-12 0 0 0 5.98306e-27
10241 342 0.0015 0.221897 -1.89 0 1.41258e-11 0 0 0 2.12265e-26
10242 342 0.0015 0.222586 -1.89 0 -1.91976e-11 0 0 0 3.53133e-26
10243 342 0.0015 0.223276 -1.89 0 1.7459e-11 0 0 0 2.96232e-26
10244 342 0.0015 0.223966 -1.89 0 -1.56842e-11 0 0 0 2.35721e-26
10245 342 0.0015 0.224655 -1.89 0 1.73137e-11 0 0 0 2.88727e-26
10246 342 0.0015 0.225345 -1.89 0 -1.73137e-11 0 0 0 2.88727e-26
10247 342 0.0015 0.226034 -1.89 0 1.56842e-11 0 0 0 2.35721e-26
10248 342 0.0015 0.226724 -1.89 0 -1.7459e-11 0 0 0 2.96232e-26
10249 342 0.0015 0.227414 -1.89 0 1.91976e-11 0 0 0 3.53133e-26
10250 342 0.0015 0.228103 -1.89 0 -1.41258e-11 0 0 0 2.12265e-26
10251 342 0.0015 0.228793 -1.89 0 7.71486e-12 0 0 0 5.98306e-27
10252 342 0.0015 0.229483 -1.89 0 -8.76571e-12 0 0 0 8.09199e-27
10253 342 0.0015 0.230172 -1.89 0 1.06492e-11 0 0 0 1.09366e-26
10254 342 0.0015 0.230862 -1.89 0 -8.51239e-12 0 0 0 7.09089e-27
10255 342 0.0015 0.231552 -1.89 0 5.61493e-12 0 0 0 3.27753e-27
10256 342 0.0015 0.232241 -1.89 0 -5.79559e-12 0 0 0 3.53558e-27
10257 342 0.0015 0.232931 -1.89 0 8.9466e-12 0 0 0 7.83567e-27
10258 342 0.0015 0.233621 -1.89 0 -9.16437e-12 0 0 0 8.16192e-27
10259 342 0.0015 0.23431 -1.89 0 5.94047e-12 0 0 0 3.80771e-27
10260 342 0.0015 0.235 -1.89 0 -1.91349e-12 0 0 0 7.01425e-28
6001 201 0.0015 0.490936 -1.89052 0 8.03521e-13 2.07225e-12 0 0 1.14347e-26
1474 50 0.0015 0.563543 -1.89178 0 -1.96874e-12 -4.86846e-13 0 6.81478e-21 4.1517e-27
3539 118 0.0015 0.640514 -1.89051 0 1.07997e-11 4.05044e-12 0 0 5.4084e-26
2643 89 0.0015 -0.578354 -1.8892 0 -5.79592e-12 4.91035e-12 0 0 3.78784e-26
6063 203 0.0015 -0.391043 -1.8889 0 -2.67627e-11 -2.53983e-13 0 2.48474e-20 1.63973e-25
6064 203 0.0015 -0.392859 -1.88804 0 9.06686e-12 -9.84371e-12 0 2.48474e-20 6.49889e-26
6062 203 0.0015 -0.389226 -1.88976 0 2.10627e-11 8.57995e-12 0 0 1.02798e-25
10264 343 0.0015 0.419847 -1.88903 0 -2.52378e-12 -1.2214e-11 0 1.24237e-20 8.68717e-26
1475 50 0.0015 0.56577 -1.88887 0 6.30197e-12 6.3134e-12 0 2.04443e-20 5.19542e-26
3538 118 0.0015 0.643052 -1.8886 0 -2.37024e-12 3.44377e-12 0 0 5.99911e-26
2644 89 0.0015 -0.582074 -1.88635 0 4.85177e-12 -4.27614e-12 0 0 2.94615e-26
6066 203 0.0015 -0.396492 -1.88631 0 -1.07565e-12 -1.07077e-12 0 2.48474e-20 2.42732e-27
6065 203 0.0015 -0.394676 -1.88717 0 1.59051e-12 1.0271e-11 0 4.96948e-20 2.54838e-27
7981 267 0.0015 -0.194876 -1.88635 0 9.95694e-13 -1.65457e-12 0 0 1.58874e-27
10326 345 0.0015 -0.0639033 -1.88773 0 -1.18049e-12 8.05708e-13 0 1.57149e-20 8.23271e-28
1953 66 0.0015 0.0146782 -1.88782 0 -3.00752e-13 3.39834e-12 0 5.20104e-21 5.4724e-26
8043 269 0.0015 0.154095 -1.88717 0 3.07648e-13 -3.01314e-12 0 3.6872e-21 9.16885e-27
3537 118 0.0015 0.645589 -1.88668 0 -1.05116e-11 -1.08181e-11 0 0 1.02288e-25
6068 203 0.0015 -0.400126 -1.88459 0 -7.66885e-12 3.43951e-12 0 2.48474e-20 2.44509e-26
6067 203 0.0015 -0.398309 -1.88545 0 4.62855e-12 -8.83299e-12 0 2.48474e-20 2.35152e-26
6033 202 0.0015 -0.323025 -1.88564 0 -3.75539e-13 7.97967e-13 0 0 1.69022e-27
7983 267 0.0015 -0.199527 -1.8846 0 3.52332e-12 -2.85853e-12 0 1.00459e-20 1.00549e-26
7982 267 0.0015 -0.197202 -1.88548 0 -3.84152e-12 4.81164e-12 0 1.00459e-20 1.14511e-26
10327 345 0.0015 -0.0645802 -1.88463 0 1.908e-12 -3.99684e-12 0 0 1.0722e-26
10265 343 0.0015 0.420568 -1.88507 0 2.03778e-12 1.27706e-11 0 1.24237e-20 9.33816e-26
1476 50 0.0015 0.567996 -1.88596 0 -7.7497e-12 -7.90632e-12 0 2.72591e-20 6.52849e-26
3536 118 0.0015 0.648126 -1.88476 0 8.3772e-12 7.23822e-12 0 0 7.50912e-26
2645 89 0.0015 -0.585795 -1.88349 0 4.79816e-13 -2.27456e-13 0 1.59781e-20 1.69567e-26
6071 203 0.0015 -0.405575 -1.882 0 -2.31833e-12 7.57754e-13 0 0 4.89387e-27
6070 203 0.0015 -0.403759 -1.88287 0 7.53864e-13 -1.67298e-11 0 2.48474e-20 1.83538e-26
6069 203 0.0015 -0.401942 -1.88373 0 3.35053e-12 1.3574e-11 0 2.48474e-20 1.61639e-26
7985 267 0.0015 -0.204179 -1.88284 0 9.64434e-12 7.28023e-12 0 0 1.53128e-26
7984 267 0.0015 -0.201853 -1.88372 0 -4.47748e-12 -3.59928e-12 0 1.00459e-20 4.12711e-27
1954 66 0.0015 0.0141981 -1.88304 0 1.03088e-12 -1.02956e-11 0 5.20104e-21 7.28301e-26
6002 201 0.0015 0.493952 -1.88275 0 -1.88499e-13 -6.15569e-13 0 0 1.72171e-26
1477 50 0.0015 0.570222 -1.88304 0 5.09429e-12 4.24749e-12 0 2.04443e-20 2.29154e-26
3535 118 0.0015 0.650663 -1.88285 0 3.14367e-13 -3.39114e-13 0 0 7.65541e-27
2646 89 0.0015 -0.589516 -1.88064 0 -4.80723e-12 4.23495e-12 0 1.59781e-20 2.70285e-26
6073 203 0.0015 -0.409209 -1.88028 0 -2.08702e-11 -9.77409e-12 0 2.48474e-20 6.88086e-26
6072 203 0.0015 -0.407392 -1.88114 0 1.07378e-11 1.32138e-11 0 0 1.16296e-26
7988 267 0.0015 -0.211156 -1.8802 0 6.01272e-12 -9.5028e-12 0 3.01377e-20 2.86762e-26
7987 267 0.0015 -0.208831 -1.88108 0 -3.62537e-12 1.08636e-11 0 3.01377e-20 2.17557e-26
7986 267 0.0015 -0.206505 -1.88196 0 -5.6449e-12 -9.06125e-12 0 2.00918e-20 1.40977e-26
8011 268 0.0015 -0.176367 -1.88159 0 3.2361e-13 9.18862e-13 0 0 3.46133e-27
10328 345 0.0015 -0.065257 -1.88152 0 -8.26273e-13 -1.75284e-13 0 0 1.97802e-26
8044 269 0.0015 0.1534 -1.88043 0 -5.58509e-13 5.42285e-12 0 7.37441e-21 3.05798e-26
10266 343 0.0015 0.421289 -1.88111 0 -1.19346e-12 -9.49306e-12 0 1.24237e-20 5.80669e-26
1478 50 0.0015 0.572449 -1.88013 0 4.95672e-13 2.45307e-12 0 6.81478e-21 2.70801e-26
3534 118 0.0015 0.653201 -1.88093 0 -3.55905e-12 -4.58626e-12 0 0 1.47236e-26
10292 344 0.0015 -0.465124 -1.8785 0 4.89897e-14 7.71848e-13 0 1.68424e-20 2.37806e-27
10291 344 0.0015 -0.4623 -1.87941 0 1.08429e-12 -8.49758e-13 0 0 1.37599e-27
6074 203 0.0015 -0.411025 -1.87942 0 2.11172e-11 -2.62304e-12 0 2.48474e-20 1.13987e-25
6075 203 0.0015 -0.412842 -1.87856 0 -1.43419e-11 4.87604e-12 0 2.48474e-20 7.04916e-26
7990 267 0.0015 -0.215808 -1.87844 0 3.62721e-12 3.79885e-13 0 0 3.78649e-27
7989 267 0.0015 -0.213482 -1.87932 0 -4.05868e-12 3.60166e-12 0 1.00459e-20 1.08701e-26
10329 345 0.0015 -0.0659339 -1.87841 0 -1.10806e-12 7.76607e-12 0 0 2.75982e-26
1955 66 0.0015 0.0137179 -1.87827 0 -3.98432e-13 3.3766e-12 0 5.20104e-21 2.78362e-26
10201 341 0.0015 0.290108 -1.87875 0 5.16036e-13 -4.00794e-12 0 0 3.0728e-26
3533 118 0.0015 0.655738 -1.87902 0 3.07134e-12 8.01216e-12 0 0 2.34287e-26
2647 89 0.0015 -0.593237 -1.87778 0 3.18537e-12 -3.82037e-12 0 1.59781e-20 1.88965e-26
10294 344 0.0015 -0.470773 -1.87669 0 -1.96197e-12 -2.65778e-12 0 5.89485e-20 2.02574e-27
10293 344 0.0015 -0.467948 -1.87759 0 -1.20208e-12 1.32745e-12 0 4.21061e-20 1.16727e-27
6077 203 0.0015 -0.416475 -1.87683 0 -9.75135e-13 -3.18352e-12 0 0 7.3713e-27
6076 203 0.0015 -0.414658 -1.87769 0 8.30723e-12 5.01745e-13 0 0 1.68171e-26
6034 202 0.0015 -0.327828 -1.87791 0 4.91363e-13 -9.88888e-13 0 0 2.73702e-27
7992 267 0.0015 -0.22046 -1.87668 0 -7.87384e-12 -4.76331e-12 0 0 1.11827e-26
7991 267 0.0015 -0.218134 -1.87756 0 1.42602e-12 6.89206e-13 0 0 8.83e-27
10267 343 0.0015 0.42201 -1.87716 0 -9.75385e-13 -1.32367e-12 0 2.48474e-20 3.23549e-26
1479 50 0.0015 0.574675 -1.87722 0 -5.45831e-12 -8.60427e-12 0 6.81478e-21 5.29281e-26
3532 118 0.0015 0.658275 -1.8771 0 2.19515e-12 -4.86394e-12 0 0 1.85941e-26
2648 89 0.0015 -0.596958 -1.87493 0 -5.82439e-13 2.43948e-12 0 0 2.68099e-27
10296 344 0.0015 -0.476421 -1.87487 0 4.86352e-12 -2.71368e-12 0 3.36849e-20 2.59355e-26
10295 344 0.0015 -0.473597 -1.87578 0 2.55114e-12 2.54419e-12 0 5.89485e-20 1.87856e-27
6080 203 0.0015 -0.421925 -1.87425 0 1.27538e-11 -2.29364e-11 0 0 1.34813e-25
6079 203 0.0015 -0.420108 -1.87511 0 -8.66294e-12 1.11784e-11 0 0 9.84813e-26
6078 203 0.0015 -0.418291 -1.87597 0 -2.93986e-12 1.83811e-12 0 0 4.60861e-27
7995 267 0.0015 -0.227437 -1.87404 0 9.1005e-14 9.64939e-12 0 3.01377e-20 3.84269e-27
7994 267 0.0015 -0.225111 -1.87492 0 3.1982e-12 -1.12053e-11 0 1.00459e-20 2.07129e-26
7993 267 0.0015 -0.222785 -1.8758 0 1.28046e-12 1.04942e-11 0 0 2.34466e-26
10330 345 0.0015 -0.0666107 -1.87531 0 -6.10943e-13 1.52637e-12 0 1.57149e-20 5.05948e-26
6003 201 0.0015 0.496967 -1.87498 0 -8.0605e-13 -1.69003e-12 0 0 5.9726e-27
1480 50 0.0015 0.576901 -1.87431 0 -1.88787e-12 -4.73504e-13 0 1.36296e-20 8.24768e-26
3531 118 0.0015 0.660812 -1.87519 0 -4.60299e-12 1.44817e-12 0 0 6.01097e-27
2649 89 0.0015 -0.600679 -1.87207 0 2.55523e-12 -3.99858e-12 0 0 1.91598e-26
10299 344 0.0015 -0.484893 -1.87215 0 9.69604e-12 -2.09873e-12 0 0 4.1682e-26
10298 344 0.0015 -0.482069 -1.87306 0 6.35017e-13 2.91234e-14 0 0 3.02453e-26
10297 344 0.0015 -0.479245 -1.87396 0 -9.89112e-12 2.49422e-12 0 1.68424e-20 4.31378e-26
6082 203 0.0015 -0.425558 -1.87252 0 1.21509e-12 -8.2029e-12 0 0 2.32688e-26
6081 203 0.0015 -0.423741 -1.87338 0 4.55689e-13 1.60313e-11 0 0 3.80505e-26
7997 267 0.0015 -0.232089 -1.87228 0 -1.3795e-12 1.11848e-11 0 2.00918e-20 1.17729e-26
7996 267 0.0015 -0.229763 -1.87316 0 1.50182e-12 -1.14568e-11 0 3.01377e-20 1.21943e-26
10331 345 0.0015 -0.0672875 -1.8722 0 3.36637e-12 -1.57684e-11 0 3.14298e-20 1.21579e-25
1956 66 0.0015 0.0132378 -1.87349 0 -5.18215e-13 6.07049e-12 0 0 3.54204e-26
8045 269 0.0015 0.152704 -1.87369 0 1.01967e-12 -1.00286e-11 0 3.6872e-21 1.03862e-25
10202 341 0.0015 0.289307 -1.87202 0 -4.58898e-13 3.10035e-12 0 0 3.22794e-26
4531 152 0.0015 0.366216 -1.8733 0 8.20599e-14 -7.70619e-13 0 0 1.45186e-27
10268 343 0.0015 0.422731 -1.8732 0 2.86733e-12 1.13803e-11 0 1.24237e-20 8.086e-26
3530 118 0.0015 0.66335 -1.87327 0 -2.87589e-12 -5.04188e-12 0 0 2.70692e-26
10301 344 0.0015 -0.490541 -1.87033 0 1.8293e-12 7.50104e-13 0 1.68424e-20 2.22161e-26
10300 344 0.0015 -0.487717 -1.87124 0 -1.01643e-11 1.86106e-12 0 0 4.42417e-26
6084 203 0.0015 -0.429191 -1.8708 0 -1.14835e-12 1.67001e-12 0 2.48474e-20 1.93862e-26
6083 203 0.0015 -0.427374 -1.87166 0 -7.60051e-12 6.00549e-12 0 2.48474e-20 2.74876e-26
6035 202 0.0015 -0.332631 -1.87017 0 -6.92004e-13 1.21473e-12 0 0 3.05257e-27
7999 267 0.0015 -0.23674 -1.87052 0 5.16579e-12 1.04057e-11 0 0 4.72345e-28
7998 267 0.0015 -0.234415 -1.8714 0 -2.90559e-12 -1.01475e-11 0 0 1.3991e-27
1481 50 0.0015 0.579128 -1.8714 0 8.0236e-12 7.90027e-12 0 2.04443e-20 6.78991e-26
3529 118 0.0015 0.665887 -1.87136 0 4.8214e-12 4.8014e-12 0 0 2.83228e-26
2650 89 0.0015 -0.6044 -1.86922 0 -5.50372e-12 5.45137e-12 0 0 3.84845e-26
10303 344 0.0015 -0.49619 -1.86852 0 -2.46617e-12 -4.85215e-13 0 1.68424e-20 3.147e-26
10302 344 0.0015 -0.493366 -1.86943 0 7.63661e-12 -2.92708e-12 0 1.68424e-20 3.00313e-26
6087 203 0.0015 -0.434641 -1.86821 0 -7.09449e-12 -1.04897e-11 0 2.48474e-20 2.18715e-26
6085 203 0.0015 -0.431008 -1.86994 0 -1.78171e-12 -6.34231e-12 0 2.48474e-20 2.1919e-26
6086 203 0.0015 -0.432824 -1.86908 0 1.29884e-11 6.10597e-12 0 0 2.37906e-26
8001 267 0.0015 -0.241392 -1.86876 0 1.20415e-12 1.89802e-12 0 1.00459e-20 7.56123e-28
8000 267 0.0015 -0.239066 -1.86964 0 -2.93982e-12 -7.19905e-12 0 0 4.75941e-28
8012 268 0.0015 -0.171924 -1.86923 0 -2.11405e-13 -6.37761e-13 0 0 3.79506e-27
10332 345 0.0015 -0.0679644 -1.86909 0 -3.37061e-12 1.77975e-11 0 3.14298e-20 1.46427e-25
1957 66 0.0015 0.0127576 -1.86871 0 4.82103e-13 -5.21374e-12 0 0 3.40072e-26
10269 343 0.0015 0.423451 -1.86924 0 -2.52986e-12 -1.22648e-11 0 1.24237e-20 8.96812e-26
1482 50 0.0015 0.581354 -1.86848 0 -3.86213e-12 -2.78144e-12 0 1.36296e-20 1.71043e-26
3528 118 0.0015 0.668424 -1.86944 0 -5.10395e-12 -4.33097e-12 0 0 2.77595e-26
2651 89 0.0015 -0.608121 -1.86636 0 4.32707e-12 -3.62659e-12 0 0 2.38338e-26
10305 344 0.0015 -0.501838 -1.8667 0 6.49638e-13 -1.54869e-12 0 1.68424e-20 8.0031e-27
10304 344 0.0015 -0.499014 -1.86761 0 -4.9172e-12 3.6912e-12 0 1.68424e-20 1.3993e-26
6089 203 0.0015 -0.438274 -1.86649 0 8.38761e-13 -3.41156e-12 0 2.48474e-20 1.65225e-27
6088 203 0.0015 -0.436457 -1.86735 0 -5.55915e-13 1.04241e-11 0 2.48474e-20 7.76093e-27
8004 267 0.0015 -0.248369 -1.86612 0 -1.79078e-12 3.64327e-13 0 1.00459e-20 1.12733e-27
8003 267 0.0015 -0.246044 -1.867 0 4.05869e-12 2.76667e-12 0 2.00918e-20 3.02913e-27
8002 267 0.0015 -0.243718 -1.86788 0 -3.41571e-12 -1.12638e-12 0 2.00918e-20 3.00155e-27
8046 269 0.0015 0.152008 -1.86695 0 -6.87909e-13 7.2037e-12 0 3.6872e-21 8.0983e-26
6004 201 0.0015 0.499982 -1.86721 0 -1.12525e-13 -6.66966e-13 0 0 2.27549e-27
3527 118 0.0015 0.670962 -1.86752 0 9.47209e-12 5.81407e-12 0 0 5.40448e-26
10307 344 0.0015 -0.507486 -1.86489 0 -1.55376e-11 5.03243e-12 0 0 1.10862e-25
10306 344 0.0015 -0.504662 -1.8658 0 8.62553e-12 -2.53814e-12 0 1.68424e-20 4.71964e-26
6090 203 0.0015 -0.440091 -1.86563 0 -6.29058e-13 1.0476e-13 0 0 2.1003e-28
8006 267 0.0015 -0.253021 -1.86436 0 3.66749e-12 2.62185e-12 0 0 6.24563e-27
8005 267 0.0015 -0.250695 -1.86524 0 -2.20789e-13 -4.31195e-12 0 0 6.51523e-28
10333 345 0.0015 -0.0686412 -1.86599 0 1.99003e-12 -1.22639e-11 0 1.57149e-20 7.42152e-26
10203 341 0.0015 0.288506 -1.8653 0 -5.5751e-13 5.14052e-12 0 0 3.57418e-26
4532 152 0.0015 0.364868 -1.86469 0 -1.41051e-13 1.50264e-12 0 0 2.75149e-27
10270 343 0.0015 0.424172 -1.86529 0 2.44099e-12 1.42942e-11 0 0 1.26091e-25
1483 50 0.0015 0.58358 -1.86557 0 2.84205e-12 3.00723e-12 0 6.81478e-21 1.36534e-26
3526 118 0.0015 0.673499 -1.86561 0 -7.06373e-12 -7.60725e-13 0 0 2.7802e-26
2652 89 0.0015 -0.611842 -1.86351 0 -1.35548e-12 1.37903e-12 0 0 3.93625e-27
10310 344 0.0015 -0.515959 -1.86217 0 -2.81572e-13 5.52743e-13 0 0 1.38624e-28
10309 344 0.0015 -0.513134 -1.86307 0 -2.73882e-12 -7.11764e-13 0 0 4.81693e-27
10308 344 0.0015 -0.51031 -1.86398 0 1.10222e-11 -2.79972e-12 0 0 7.05617e-26
6036 202 0.0015 -0.337434 -1.86244 0 1.26841e-12 -1.9687e-12 0 0 1.02707e-26
8008 267 0.0015 -0.257673 -1.8626 0 6.09842e-12 8.17953e-13 0 0 1.23276e-26
8007 267 0.0015 -0.255347 -1.86348 0 -7.29882e-12 3.2076e-13 0 0 1.69802e-26
10334 345 0.0015 -0.0693181 -1.86288 0 -1.74298e-12 8.53798e-12 0 0 3.35252e-26
1958 66 0.0015 0.0122775 -1.86393 0 2.78938e-13 -3.08854e-12 0 0 1.45034e-26
1484 50 0.0015 0.585807 -1.86266 0 -4.08153e-13 -2.00059e-12 0 0 1.6684e-26
3525 118 0.0015 0.676036 -1.86369 0 7.06373e-12 7.60725e-13 0 0 2.7802e-26
2653 89 0.0015 -0.615563 -1.86065 0 2.61112e-15 -5.55958e-13 0 0 7.62474e-29
10312 344 0.0015 -0.521607 -1.86035 0 -2.20664e-12 1.26494e-12 0 3.36849e-20 1.29505e-26
10311 344 0.0015 -0.518783 -1.86126 0 4.36445e-12 -3.32408e-14 0 1.68424e-20 1.17631e-26
8010 267 0.0015 -0.262324 -1.86085 0 2.35113e-12 5.50237e-13 0 0 2.77524e-27
8009 267 0.0015 -0.259998 -1.86172 0 -4.37366e-12 -1.81346e-12 0 0 4.21725e-27
8047 269 0.0015 0.151313 -1.86021 0 2.06708e-14 -1.10748e-12 0 0 1.24699e-27
10271 343 0.0015 0.424893 -1.86133 0 -3.18774e-12 -1.65946e-11 0 0 1.60792e-25
3524 118 0.0015 0.678573 -1.86178 0 -9.47209e-12 -5.81407e-12 0 0 5.40448e-26
10314 344 0.0015 -0.527255 -1.85854 0 -2.63139e-12 5.29137e-12 0 3.36849e-20 1.47833e-26
10313 344 0.0015 -0.524431 -1.85944 0 -2.56999e-12 -3.49164e-12 0 5.05273e-20 1.33551e-27
10335 345 0.0015 -0.0699949 -1.85978 0 3.3893e-12 -1.30259e-11 0 0 8.9476e-26
1959 66 0.0015 0.0117974 -1.85915 0 -3.89899e-13 4.52484e-12 0 0 1.6538e-26
4771 160 0.0015 0.0785585 -1.85825 0 -1.10472e-13 3.88478e-12 0 0 3.86032e-26
10204 341 0.0015 0.287705 -1.85857 0 1.09055e-12 -9.08597e-12 0 3.6872e-21 7.91675e-26
6005 201 0.0015 0.502997 -1.85945 0 2.70572e-14 1.12905e-13 0 0 3.69572e-27
1485 50 0.0015 0.588033 -1.85975 0 -5.05685e-12 -3.50301e-12 0 0 2.00705e-26
3523 118 0.0015 0.681111 -1.85986 0 5.10395e-12 4.33097e-12 0 0 2.77595e-26
2654 89 0.0015 -0.619284 -1.8578 0 -2.7849e-12 2.22343e-12 0 0 1.51728e-26
10316 344 0.0015 -0.532903 -1.85672 0 -3.86956e-12 1.59206e-12 0 1.68424e-20 9.44221e-27
10315 344 0.0015 -0.530079 -1.85763 0 6.48901e-12 -4.30402e-12 0 1.68424e-20 2.3532e-26
8013 268 0.0015 -0.167482 -1.85688 0 -5.3768e-13 -1.4585e-12 0 0 6.05024e-27
10336 345 0.0015 -0.0706718 -1.85667 0 -2.58473e-12 1.03695e-11 0 0 7.4776e-26
4533 152 0.0015 0.36352 -1.85607 0 -1.94968e-13 8.50058e-13 0 5.72705e-21 7.52104e-27
10272 343 0.0015 0.425614 -1.85738 0 2.56783e-12 9.31117e-12 0 0 7.00724e-26
1486 50 0.0015 0.59026 -1.85684 0 5.05685e-12 3.50301e-12 0 0 2.00705e-26
3522 118 0.0015 0.683648 -1.85795 0 -4.8214e-12 -4.8014e-12 0 0 2.83228e-26
3521 118 0.0015 0.686185 -1.85603 0 2.87589e-12 5.04188e-12 0 0 2.70692e-26
2655 89 0.0015 -0.623004 -1.85494 0 3.26533e-12 -1.93912e-12 0 0 1.53125e-26
10318 344 0.0015 -0.538552 -1.85491 0 4.34733e-12 -4.27282e-12 0 1.68424e-20 2.32132e-26
10317 344 0.0015 -0.535727 -1.85581 0 -3.72074e-12 2.78752e-12 0 1.68424e-20 2.38806e-26
6037 202 0.0015 -0.342237 -1.85471 0 -1.94731e-12 3.05046e-12 0 0 1.67105e-26
1960 66 0.0015 0.0113172 -1.85437 0 1.95202e-13 -2.414e-12 0 5.20104e-21 3.91519e-27
3520 118 0.0015 0.688722 -1.85412 0 4.60299e-12 -1.44817e-12 0 0 6.01097e-27
2656 89 0.0015 -0.626725 -1.85209 0 2.27027e-12 -2.69862e-12 0 0 1.90407e-26
10320 344 0.0015 -0.5442 -1.85309 0 -6.91377e-12 1.53481e-12 0 0 4.09752e-26
10319 344 0.0015 -0.541376 -1.854 0 7.22991e-12 -9.27826e-14 0 0 4.09914e-26
10337 345 0.0015 -0.0713486 -1.85356 0 -1.74151e-12 7.0362e-12 0 0 7.18176e-26
8048 269 0.0015 0.150617 -1.85348 0 -4.37769e-14 1.32773e-12 0 3.6872e-21 1.93563e-27
10273 343 0.0015 0.426335 -1.85342 0 -1.38828e-12 -8.88338e-13 0 0 4.96349e-27
1487 50 0.0015 0.592486 -1.85392 0 4.08153e-13 2.00059e-12 0 0 1.6684e-26
3519 118 0.0015 0.69126 -1.8522 0 -2.19515e-12 4.86394e-12 0 0 1.85941e-26
10338 345 0.0015 -0.0720254 -1.85046 0 4.02678e-12 -1.83547e-11 0 0 1.56402e-25
10205 341 0.0015 0.286904 -1.85184 0 -6.50573e-13 5.33576e-12 0 1.47488e-20 4.54226e-26
6006 201 0.0015 0.506013 -1.85168 0 2.2474e-13 7.28102e-13 0 5.99535e-21 1.62312e-27
1488 50 0.0015 0.594712 -1.85101 0 -2.84205e-12 -3.00723e-12 0 6.81478e-21 1.36534e-26
3518 118 0.0015 0.693797 -1.85028 0 -3.07134e-12 -8.01216e-12 0 0 2.34287e-26
2657 89 0.0015 -0.630446 -1.84923 0 -2.69302e-12 3.28067e-12 0 5.32605e-21 1.90102e-26
1961 66 0.0015 0.0108371 -1.84959 0 2.48182e-14 -2.0236e-13 0 1.04021e-20 4.35693e-27
4772 160 0.0015 0.0782973 -1.84905 0 1.98113e-13 -6.92876e-12 0 0 6.23052e-26
10274 343 0.0015 0.427056 -1.84946 0 1.46723e-13 -4.90838e-12 0 0 1.84724e-26
1489 50 0.0015 0.596939 -1.8481 0 3.86213e-12 2.78144e-12 0 1.36296e-20 1.71043e-26
3517 118 0.0015 0.696334 -1.84837 0 3.55905e-12 4.58626e-12 0 0 1.47236e-26
2658 89 0.0015 -0.634167 -1.84638 0 -1.17469e-12 -5.69017e-13 0 1.06521e-20 1.22705e-27
6038 202 0.0015 -0.34704 -1.84697 0 3.42396e-13 -5.98305e-13 0 0 9.03092e-27
10339 345 0.0015 -0.0727023 -1.84735 0 -3.07074e-12 1.54248e-11 0 0 1.16666e-25
8049 269 0.0015 0.149922 -1.84674 0 -4.14035e-13 3.48566e-12 0 3.6872e-21 3.88618e-26
6541 219 0.0015 0.213251 -1.84656 0 -8.09716e-14 1.17654e-12 0 0 2.74609e-27
4534 152 0.0015 0.362172 -1.84745 0 5.57382e-13 -3.68791e-12 0 5.72705e-21 1.71886e-26
3516 118 0.0015 0.698871 -1.84645 0 -3.14367e-13 3.39114e-13 0 0 7.65541e-27
8014 268 0.0015 -0.163039 -1.84452 0 7.89911e-14 2.17353e-13 0 0 9.5161e-27
10340 345 0.0015 -0.0733791 -1.84424 0 3.57393e-12 -1.60851e-11 0 0 1.30346e-25
1962 66 0.0015 0.010357 -1.84481 0 -3.49589e-13 3.64112e-12 0 1.04021e-20 9.47309e-27
10206 341 0.0015 0.286103 -1.84511 0 -3.07266e-13 2.54319e-12 0 1.47488e-20 1.79306e-26
10275 343 0.0015 0.427777 -1.84551 0 5.94211e-13 6.8959e-12 0 0 2.71657e-26
1490 50 0.0015 0.599165 -1.84519 0 -8.0236e-12 -7.90027e-12 0 2.04443e-20 6.78991e-26
3515 118 0.0015 0.701409 -1.84454 0 -8.3772e-12 -7.23822e-12 0 0 7.50912e-26
2659 89 0.0015 -0.637888 -1.84352 0 -3.03973e-12 3.46564e-12 0 1.06521e-20 3.95675e-26
6007 201 0.0015 0.509028 -1.84391 0 7.85764e-13 1.9017e-12 0 5.99535e-21 9.11634e-27
1491 50 0.0015 0.601391 -1.84228 0 1.88787e-12 4.73504e-13 0 1.36296e-20 8.24768e-26
3514 118 0.0015 0.703946 -1.84262 0 1.05116e-11 1.08181e-11 0 0 1.02288e-25
2660 89 0.0015 -0.641609 -1.84066 0 8.7259e-12 -6.82228e-12 0 2.13042e-20 7.99392e-26
10341 345 0.0015 -0.074056 -1.84114 0 -5.92698e-12 2.57322e-11 0 0 3.19134e-25
1963 66 0.0015 0.00987681 -1.84004 0 -3.58739e-14 2.91556e-13 0 5.20104e-21 1.58e-26
10276 343 0.0015 0.428498 -1.84155 0 -5.94211e-13 -6.8959e-12 0 0 2.71657e-26
3513 118 0.0015 0.706483 -1.84071 0 2.37024e-12 -3.44377e-12 0 0 5.99911e-26
6039 202 0.0015 -0.351842 -1.83924 0 8.16906e-13 -1.20155e-12 0 0 2.91128e-27
10342 345 0.0015 -0.0747328 -1.83803 0 6.00729e-12 -2.89345e-11 0 0 3.87179e-25
4773 160 0.0015 0.0780361 -1.83985 0 -7.17581e-14 2.43588e-12 0 2.71488e-21 2.46477e-26
8050 269 0.0015 0.149226 -1.84 0 8.31001e-13 -8.06662e-12 0 3.6872e-21 6.24556e-26
6542 219 0.0015 0.21269 -1.83947 0 3.19268e-14 -1.00693e-12 0 0 2.80515e-27
10207 341 0.0015 0.285302 -1.83839 0 3.5694e-13 -2.81635e-12 0 1.10616e-20 1.75677e-26
4535 152 0.0015 0.360823 -1.83883 0 -4.21535e-13 3.04508e-12 0 1.14541e-20 1.31367e-26
1492 50 0.0015 0.603618 -1.83936 0 5.45831e-12 8.60427e-12 0 6.81478e-21 5.29281e-26
3512 118 0.0015 0.70902 -1.83879 0 -1.07997e-11 -4.05044e-12 0 0 5.4084e-26
2661 89 0.0015 -0.64533 -1.83781 0 -7.22837e-12 5.0818e-12 0 1.59781e-20 5.46925e-26
10277 343 0.0015 0.429219 -1.8376 0 -1.46723e-13 4.90838e-12 0 0 1.84724e-26
6008 201 0.0015 0.512043 -1.83614 0 -1.32233e-12 -3.2574e-12 0 5.99535e-21 1.45365e-26
1493 50 0.0015 0.605844 -1.83645 0 -4.95672e-13 -2.45307e-12 0 6.81478e-21 2.70801e-26
3511 118 0.0015 0.711558 -1.83688 0 4.83018e-12 2.4382e-12 0 0 2.50317e-26
2662 89 0.0015 -0.649051 -1.83495 0 6.56518e-12 -4.5405e-12 0 2.13042e-20 4.30692e-26
10343 345 0.0015 -0.0754097 -1.83493 0 -3.58759e-12 2.07943e-11 0 0 2.15218e-25
1964 66 0.0015 0.00939668 -1.83526 0 7.53396e-13 -7.44382e-12 0 0 4.09634e-26
2663 89 0.0015 -0.652772 -1.8321 0 -9.42139e-12 6.63632e-12 0 1.06521e-20 8.88257e-26
10171 340 0.0015 -0.234195 -1.83312 0 -6.79476e-13 8.92692e-13 0 0 2.72963e-27
8015 268 0.0015 -0.158597 -1.83216 0 9.98336e-13 2.79711e-12 0 0 1.76584e-26
8051 269 0.0015 0.14853 -1.83326 0 -2.42235e-13 2.60949e-12 0 3.6872e-21 2.72893e-26
6543 219 0.0015 0.212128 -1.83239 0 7.31281e-14 -9.0602e-14 0 0 7.0735e-29
10278 343 0.0015 0.429939 -1.83364 0 1.38828e-12 8.88338e-13 0 0 4.96349e-27
1494 50 0.0015 0.60807 -1.83354 0 -5.09429e-12 -4.24749e-12 0 2.04443e-20 2.29154e-26
6040 202 0.0015 -0.356645 -1.83151 0 2.46022e-13 -5.50954e-13 0 0 3.72102e-27
10344 345 0.0015 -0.0760865 -1.83182 0 9.91722e-13 -7.96492e-12 0 0 4.70484e-26
1965 66 0.0015 0.00891654 -1.83048 0 -8.91995e-13 8.5495e-12 0 0 5.02755e-26
4774 160 0.0015 0.0777749 -1.83066 0 -9.18057e-14 3.21327e-12 0 5.42976e-21 1.83071e-26
10208 341 0.0015 0.284501 -1.83166 0 -3.53679e-14 -1.26868e-13 0 0 9.69208e-29
4536 152 0.0015 0.359475 -1.83021 0 3.56513e-13 -2.54804e-12 0 1.14541e-20 8.57858e-27
1495 50 0.0015 0.610297 -1.83063 0 7.7497e-12 7.90632e-12 0 2.72591e-20 6.52849e-26
2664 89 0.0015 -0.656493 -1.82924 0 1.11751e-11 -7.98107e-12 0 2.66302e-20 1.22745e-25
10345 345 0.0015 -0.0767633 -1.82871 0 1.2487e-12 -5.28158e-12 0 0 3.39536e-26
10279 343 0.0015 0.43066 -1.82968 0 -2.56783e-12 -9.31117e-12 0 0 7.00724e-26
6009 201 0.0015 0.515058 -1.82837 0 2.37257e-12 5.9578e-12 0 0 6.05707e-26
2665 89 0.0015 -0.660213 -1.82639 0 -1.01118e-11 7.37485e-12 0 2.13042e-20 1.03399e-25
10172 340 0.0015 -0.238704 -1.82673 0 1.94235e-12 -2.65571e-12 0 0 1.29423e-26
8052 269 0.0015 0.147835 -1.82652 0 -3.21827e-13 3.15498e-12 0 3.6872e-21 1.05755e-26
1496 50 0.0015 0.612523 -1.82772 0 -6.30197e-12 -6.3134e-12 0 2.04443e-20 5.19542e-26
10346 345 0.0015 -0.0774402 -1.82561 0 -2.89864e-12 1.45073e-11 0 0 9.93182e-26
1966 66 0.0015 0.0084364 -1.8257 0 5.90648e-13 -5.21133e-12 0 0 2.13876e-26
6544 219 0.0015 0.211567 -1.8253 0 -2.24436e-13 2.50896e-12 0 3.51396e-21 1.33165e-26
10209 341 0.0015 0.2837 -1.82493 0 3.38487e-13 -1.93179e-12 0 0 6.59998e-27
10280 343 0.0015 0.431381 -1.82573 0 3.18774e-12 1.65946e-11 0 0 1.60792e-25
1497 50 0.0015 0.614749 -1.8248 0 1.96874e-12 4.86846e-13 0 6.81478e-21 4.1517e-27
2666 89 0.0015 -0.663934 -1.82353 0 8.57855e-12 -6.17549e-12 0 1.59781e-20 7.28552e-26
6041 202 0.0015 -0.361448 -1.82377 0 -1.15983e-12 2.07813e-12 0 0 7.18291e-27
10347 345 0.0015 -0.078117 -1.8225 0 1.46603e-12 -8.04996e-12 0 0 6.6021e-26
2667 89 0.0015 -0.667655 -1.82068 0 -4.73916e-12 2.88396e-12 0 0 3.34947e-26
10173 340 0.0015 -0.243212 -1.82034 0 -2.09252e-12 3.06328e-12 0 0 1.53677e-26
1967 66 0.0015 0.00795626 -1.82092 0 -3.65649e-13 2.59287e-12 0 0 4.72839e-27
4775 160 0.0015 0.0775136 -1.82146 0 1.26355e-13 -4.19887e-12 0 8.14464e-21 2.38593e-26
4537 152 0.0015 0.358127 -1.82159 0 -3.83515e-13 2.45305e-12 0 1.14541e-20 8.18688e-27
10281 343 0.0015 0.432102 -1.82177 0 -2.44099e-12 -1.42942e-11 0 0 1.26091e-25
6010 201 0.0015 0.518074 -1.8206 0 -4.28007e-12 -1.11172e-11 0 0 1.696e-25
1498 50 0.0015 0.616976 -1.82189 0 -2.20409e-12 -1.26592e-12 0 0 7.81436e-27
8016 268 0.0015 -0.154154 -1.81981 0 -8.47692e-13 -2.42508e-12 0 1.90242e-21 1.52591e-26
10348 345 0.0015 -0.0787939 -1.81939 0 9.54786e-13 -3.28083e-12 0 0 7.88023e-27
8053 269 0.0015 0.147139 -1.81978 0 2.66097e-13 -3.09284e-12 0 3.6872e-21 1.03193e-26
6545 219 0.0015 0.211005 -1.81821 0 2.48221e-13 -3.56688e-12 0 7.02791e-21 1.51998e-26
10210 341 0.0015 0.282899 -1.8182 0 -3.11487e-13 1.62831e-12 0 0 6.67414e-27
1499 50 0.0015 0.619202 -1.81898 0 -3.76195e-13 -1.04002e-12 0 0 2.23285e-26
2668 89 0.0015 -0.671376 -1.81782 0 -9.22656e-14 9.67884e-13 0 5.32605e-21 1.94406e-27
6042 202 0.0015 -0.366251 -1.81604 0 -1.83586e-14 -1.60392e-13 0 0 7.43865e-27
10349 345 0.0015 -0.0794707 -1.81629 0 -1.48264e-12 6.11891e-12 0 0 1.75606e-26
1968 66 0.0015 0.00747613 -1.81614 0 5.10783e-13 -3.4452e-12 0 0 9.29866e-27
10282 343 0.0015 0.432823 -1.81781 0 2.52986e-12 1.22648e-11 0 1.24237e-20 8.96812e-26
1500 50 0.0015 0.621428 -1.81607 0 2.29132e-12 3.02696e-12 0 0 1.46749e-26
2669 89 0.0015 -0.675097 -1.81497 0 3.13918e-12 -2.94692e-12 0 5.32605e-21 1.46331e-26
5941 199 0.0015 0.740778 -1.81551 0 -1.06044e-13 -4.0409e-13 0 2.60052e-21 4.65561e-28
2670 89 0.0015 -0.678818 -1.81211 0 -2.44344e-12 1.99914e-12 0 5.32605e-21 1.29726e-26
10174 340 0.0015 -0.24772 -1.81396 0 8.61014e-15 -2.25407e-13 0 0 9.1222e-27
10350 345 0.0015 -0.0801475 -1.81318 0 7.5089e-13 -3.25703e-12 0 0 9.86469e-27
4776 160 0.0015 0.0772524 -1.81226 0 -2.46599e-14 5.95462e-13 0 5.42976e-21 9.04655e-27
8054 269 0.0015 0.146443 -1.81304 0 1.74357e-13 -8.92488e-13 0 0 8.44046e-27
4538 152 0.0015 0.356779 -1.81297 0 -1.03093e-13 9.05004e-13 0 5.72705e-21 9.34049e-27
10283 343 0.0015 0.433544 -1.81386 0 -2.86733e-12 -1.13803e-11 0 1.24237e-20 8.086e-26
6011 201 0.0015 0.521089 -1.81283 0 2.57667e-12 7.03136e-12 0 0 1.14942e-25
1969 66 0.0015 0.00699599 -1.81136 0 -9.15382e-13 7.26959e-12 0 0 3.99269e-26
6546 219 0.0015 0.210443 -1.81113 0 1.96719e-13 -1.608e-12 0 7.02791e-21 1.52246e-26
10211 341 0.0015 0.282098 -1.81148 0 3.07421e-13 -2.48771e-12 0 3.6872e-21 1.40482e-26
6043 202 0.0015 -0.371054 -1.8083 0 2.3973e-12 -3.71133e-12 0 0 3.03678e-26
10284 343 0.0015 0.434265 -1.8099 0 9.75385e-13 1.32367e-12 0 2.48474e-20 3.23549e-26
10175 340 0.0015 -0.252228 -1.80757 0 1.71917e-12 -2.37422e-12 0 0 9.38471e-27
8017 268 0.0015 -0.149712 -1.80745 0 -7.90056e-13 -2.13447e-12 0 1.90242e-21 3.19794e-26
1970 66 0.0015 0.00651585 -1.80658 0 1.04094e-12 -9.10399e-12 0 0 5.62849e-26
8055 269 0.0015 0.145748 -1.8063 0 -7.97849e-13 6.8344e-12 0 0 5.36995e-26
5942 199 0.0015 0.743061 -1.80618 0 -3.34906e-13 -1.2888e-12 0 2.60052e-21 8.62943e-27
6547 219 0.0015 0.209882 -1.80404 0 -3.68286e-13 3.67877e-12 0 3.51396e-21 1.57112e-26
10212 341 0.0015 0.281297 -1.80475 0 -8.43775e-13 7.95589e-12 0 3.6872e-21 6.63495e-26