50
 Atoms. Timestep: 0
1 0.0257729 0.110617 0
1 0.111436 -0.0564546 0
1 -0.160673 0.0975511 0
1 -0.245752 0.102619 0
1 -0.0203631 -0.245742 0
1 -0.214879 -0.133086 0
1 0.232627 0.182644 0
1 -0.0141393 0.128771 0
1 0.244156 0.000263229 0
1 -0.0723077 0.0936398 0
1 -0.0641895 0.0299268 0
1 0.21113 0.165483 0
1 0.178811 0.240667 0
1 -0.130547 0.239707 0
1 0.141969 0.0401886 0
1 -0.200701 -0.111359 0
1 -0.216541 -0.122534 0
1 0.147056 0.199018 0
1 -0.0204798 -0.144287 0
1 -0.17051 0.205834 0
1 -0.0534345 -0.137757 0
1 0.0448387 0.243768 0
1 -0.205424 -0.149759 0
1 -0.0515624 -0.208677 0
1 0.122198 0.228542 0
1 0.0611889 0.172548 0
1 0.0473566 -0.122311 0
1 0.202745 -0.0929752 0
2 -0.0552682 0.00913406 0
2 0.217701 0.154104 0
2 0.233257 0.177733 0
2 -0.0801467 0.173803 0
2 -0.0700858 -0.145616 0
2 0.117896 0.210083 0
2 0.0781437 0.242325 0
2 -0.24873 0.132027 0
2 -0.221738 0.0969455 0
2 0.017032 -0.048606 0
2 0.211578 0.0555628 0
2 -0.0676096 0.0187437 0
2 -0.0112928 0.115382 0
2 0.203097 0.182203 0
2 0.108891 -0.222886 0
2 0.183223 0.112704 0
2 0.138684 -0.0228864 0
2 0.222937 0.128987 0
2 0.0850589 -0.076371 0
2 0.202631 -0.0731649 0
2 0.243026 -0.245105 0
2 -0.00495579 0.125043 0
50
 Atoms. Timestep: 100
1 0.0257765 0.11062 0
1 0.111432 -0.0564581 0
1 -0.160673 0.0975511 0
1 -0.245752 0.102619 0
1 -0.0203631 -0.245742 0
1 -0.214879 -0.133086 0
1 0.232627 0.182644 0
1 -0.0141393 0.128771 0
1 0.244156 0.000263229 0
1 -0.0723077 0.0936398 0
1 -0.0641895 0.0299268 0
1 0.21113 0.165483 0
1 0.178811 0.240667 0
1 -0.130547 0.239707 0
1 0.141969 0.0401886 0
1 -0.200701 -0.111359 0
1 -0.216541 -0.122534 0
1 0.147056 0.199018 0
1 -0.0204798 -0.144287 0
1 -0.17051 0.205834 0
1 -0.0534345 -0.137757 0
1 0.0448387 0.243768 0
1 -0.205424 -0.149759 0
1 -0.0515624 -0.208677 0
1 0.122198 0.228542 0
1 0.0611889 0.172548 0
1 0.0473566 -0.122311 0
1 0.202745 -0.0929752 0
2 -0.0552682 0.00913406 0
2 0.217701 0.154104 0
2 0.233257 0.177733 0
2 -0.0801467 0.173803 0
2 -0.0700858 -0.145616 0
2 0.117896 0.210083 0
2 0.0781437 0.242325 0
2 -0.24873 0.132027 0
2 -0.221738 0.0969455 0
2 0.017032 -0.048606 0
2 0.211578 0.0555628 0
2 -0.0676096 0.0187437 0
2 -0.0112928 0.115382 0
2 0.203097 0.182203 0
2 0.108891 -0.222886 0
2 0.183223 0.112704 0
2 0.138684 -0.0228864 0
2 0.222937 0.128987 0
2 0.0850589 -0.076371 0
2 0.202631 -0.0731649 0
2 0.243026 -0.245105 0
2 -0.00495579 0.125043 0
