ITEM: TIMESTEP
314
ITEM: NUMBER OF ATOMS
18
ITEM: BOX BOUNDS pp pp ff
-2.5000000000000000e-01 2.5000000000000000e-01
-2.5000000000000000e-01 2.5000000000000000e-01
-1.0000000000000001e-01 1.0000000000000001e-01
ITEM: ATOMS id type radius x y z fx fy fz c_bendingE c_stretchingE
12 1 0.005 -0.199349 -0.247884 -0.049298 0 0 -5.13127e-08 0 0
9 1 0.005 0.0848072 -0.224909 -0.049298 0 0 -5.13127e-08 0 0
11 1 0.005 -0.0747657 -0.197441 -0.049298 0 0 -5.13127e-08 0 0
2 1 0.005 -0.0686753 -0.162793 -0.049298 0 0 -5.13127e-08 0 0
5 1 0.005 0.076317 -0.164389 -0.049298 0 0 -5.13127e-08 0 0
7 1 0.005 0.187872 -0.0212195 -0.049298 0 0 -5.13127e-08 0 0
3 1 0.005 -0.0360295 -0.0090761 -0.049298 0 0 -5.13127e-08 0 0
16 1 0.005 0.209001 -0.000470914 -0.049298 0 0 -5.13127e-08 0 0
15 1 0.005 0.148469 0.0120966 -0.049298 0 0 -5.13127e-08 0 0
14 1 0.005 0.247695 0.0163007 -0.049298 0 0 -5.13127e-08 0 0
18 1 0.005 0.00272914 0.0730967 -0.049298 0 0 -5.13127e-08 0 0
13 1 0.005 0.0221373 0.0810973 -0.049298 0 0 -5.13127e-08 0 0
17 1 0.005 0.0994554 0.100922 -0.049298 0 0 -5.13127e-08 0 0
6 1 0.005 0.0413525 0.107611 -0.049298 0 0 -5.13127e-08 0 0
1 1 0.005 0.130966 0.136494 -0.049298 0 0 -5.13127e-08 0 0
8 1 0.005 0.0234245 0.156317 -0.049298 0 0 -5.13127e-08 0 0
4 1 0.005 0.143092 0.231949 -0.049298 0 0 -5.13127e-08 0 0
10 1 0.005 -0.0751582 0.244026 -0.049298 0 0 -5.13127e-08 0 0
