ITEM: TIMESTEP
400000
ITEM: NUMBER OF ATOMS
48
ITEM: BOX BOUNDS pp pp ff
-2.5000000000000000e-01 2.5000000000000000e-01
-2.5000000000000000e-01 2.5000000000000000e-01
-1.0000000000000001e-01 1.0000000000000001e-01
ITEM: ATOMS id type radius x y z fx fy fz c_bendingE c_stretchingE
46 2 0.005 0.178 -0.196343 0 0 0 0 0 0
34 2 0.005 0.154699 -0.186959 0 0 0 0 0 0
7 1 0.005 0.244294 -0.182207 0 0 0 0 0 0
41 2 0.005 -0.133082 -0.177238 0 0 0 0 0 0
20 1 0.005 0.0745651 -0.159396 0 0 0 0 0 0
44 2 0.005 -0.247094 -0.123283 0 0 0 0 0 0
5 1 0.005 0.156213 -0.100418 0 0 0 0 0 0
11 1 0.005 0.17456 -0.0928701 0 0 0 0 0 0
4 1 0.005 0.194853 -0.0937573 0 0 0 0 0 0
48 2 0.005 -0.210243 -0.08479 0 0 0 0 0 0
35 2 0.005 0.0353436 -0.0792826 0 0 0 0 0 0
3 1 0.005 0.189326 -0.0707312 0 0 0 0 0 0
27 2 0.005 -0.101997 -0.0650911 0 0 0 0 0 0
15 1 0.005 -0.248926 -0.0551581 0 0 0 0 0 0
22 1 0.005 0.0629881 -0.0446302 0 0 0 0 0 0
47 2 0.005 -0.0640172 -0.0344667 0 0 0 0 0 0
31 2 0.005 0.145587 -0.00412185 0 0 0 0 0 0
39 2 0.005 -0.15807 0.00199447 0 0 0 0 0 0
38 2 0.005 -0.223302 0.00909641 0 0 0 0 0 0
10 1 0.005 0.210635 0.0163396 0 0 0 0 0 0
30 2 0.005 0.124965 0.0426083 0 0 0 0 0 0
21 1 0.005 -0.0931782 0.048221 0 0 0 0 0 0
19 1 0.005 0.232331 0.0479557 0 0 0 0 0 0
8 1 0.005 0.129214 0.0612798 0 0 0 0 0 0
32 2 0.005 0.226493 0.0721681 0 0 0 0 0 0
14 1 0.005 -0.174947 0.0775058 0 0 0 0 0 0
6 1 0.005 -0.113045 0.074748 0 0 0 0 0 0
25 2 0.005 -0.105136 0.0817482 0 0 0 0 0 0
37 2 0.005 -0.192547 0.0865099 0 0 0 0 0 0
17 1 0.005 -0.220469 0.0929836 0 0 0 0 0 0
12 1 0.005 -0.0616986 0.102418 0 0 0 0 0 0
28 2 0.005 0.0699789 0.115507 0 0 0 0 0 0
2 1 0.005 -0.124764 0.122147 0 -3.7024e-14 -3.7024e-14 0 0 0
24 2 0.005 0.106817 0.116898 0 0 0 0 0 0
23 1 0.005 0.137349 0.122777 0 0 0 0 0 0
1 1 0.005 -0.225703 0.146657 0 3.7024e-14 3.7024e-14 0 0 0
9 1 0.005 -0.190603 0.144876 0 0 0 0 0 0
45 2 0.005 0.130001 0.164483 0 0 0 0 0 0
29 2 0.005 0.161156 0.16663 0 0 0 0 0 0
33 2 0.005 0.2083 0.169415 0 0 0 0 0 0
36 2 0.005 -0.0593861 0.175934 0 0 0 0 0 0
43 2 0.005 -0.0302944 0.185961 0 0 0 0 0 0
40 2 0.005 0.116131 0.183911 0 0 0 0 0 0
42 2 0.005 0.0796987 0.190451 0 0 0 0 0 0
18 1 0.005 0.159395 0.198207 0 0 0 0 0 0
26 2 0.005 0.162183 0.207905 0 0 0 0 0 0
16 1 0.005 -0.22076 0.22906 0 0 0 0 0 0
13 1 0.005 -0.183941 0.231762 0 0 0 0 0 0
