ITEM: TIMESTEP
800000
ITEM: NUMBER OF ATOMS
56
ITEM: BOX BOUNDS pp pp ff
-2.5000000000000000e-01 2.5000000000000000e-01
-2.5000000000000000e-01 2.5000000000000000e-01
-1.0000000000000001e-01 1.0000000000000001e-01
ITEM: ATOMS id type radius x y z fx fy fz c_bendingE c_stretchingE
26 1 0.05 -0.140449 -0.237361 0 2308.05 1421.61 0 0 0
27 2 0.05 -0.110972 -0.226098 0 -1477.25 -1483.09 0 0 0
48 2 0.05 -0.0572894 -0.226448 0 1476.62 -179.956 0 0 0
32 2 0.05 0.162492 -0.199102 0 930.962 -1665.95 0 0 0
25 1 0.05 0.169426 -0.205358 0 -522.89 22.7602 0 0 0
40 2 0.05 0.210632 -0.247838 0 144.616 -550.043 0 0 0
14 1 0.05 0.244315 -0.217172 0 518.854 -113.161 0 0 0
38 2 0.05 -0.247507 -0.160881 0 -771.071 -1255.26 0 0 0
29 2 0.05 -0.108428 -0.181267 0 -542.183 1747.36 0 0 0
18 1 0.05 -0.0136294 -0.171159 0 0 0 0 0 0
44 2 0.05 0.0851494 -0.192523 0 -1473.86 -667.09 0 0 0
50 2 0.05 0.13366 -0.161939 0 -1362.03 672.667 0 0 0
43 2 0.05 -0.218516 -0.11922 0 324.022 907.58 0 0 0
51 2 0.05 -0.102366 -0.107719 0 -23.5733 25.481 0 0 0
56 2 0.05 -0.0398427 -0.101586 0 -946.936 -1179.46 0 0 0
52 2 0.05 0.0255838 -0.120134 0 1270.07 -897.766 0 0 0
17 1 0.05 0.124307 -0.119871 0 1221.57 -1296.27 0 0 0
33 2 0.05 0.164313 -0.131694 0 1301.68 2193.56 0 0 0
16 1 0.05 0.217568 -0.125128 0 514.979 -1931.8 0 0 0
7 1 0.05 0.209509 -0.0840929 0 396.819 629.73 0 0 0
49 2 0.05 -0.157769 -0.0804543 0 -289.342 581.11 0 0 0
22 1 0.05 -0.0288812 -0.0360418 0 7.1533 -149.011 0 0 0
36 2 0.05 -0.0131753 -0.067627 0 340.018 1777.87 0 0 0
1 1 0.05 0.0283354 -0.046775 0 -1001.81 1254.9 0 0 0
12 1 0.05 0.0651801 -0.0742825 0 -1988.11 273.267 0 0 0
15 1 0.05 0.085239 -0.080958 0 2749.73 -486.574 0 0 0
24 1 0.05 0.186002 -0.0384661 0 -641.231 1210.99 0 0 0
3 1 0.05 -0.159439 -0.0213277 0 -617.736 -896.528 0 0 0
55 2 0.05 -0.191156 -0.00222915 0 -100.827 236.233 0 0 0
10 1 0.05 -0.0835068 -0.0189992 0 -609.297 336.534 0 0 0
53 2 0.05 -0.0767787 0.0264828 0 400.069 -1059.25 0 0 0
47 2 0.05 0.0288384 -0.00536222 0 -447.948 209.512 0 0 0
4 1 0.05 0.0955873 0.0217066 0 -2298.66 -1017.99 0 0 0
31 2 0.05 0.0936702 0.0158786 0 666.172 118.759 0 0 0
39 2 0.05 0.190306 -0.0237814 0 0 0 0 0 0
2 1 0.05 -0.23736 0.0566289 0 -819.198 -2157.42 0 0 0
5 1 0.05 -0.152418 0.0441841 0 205.764 602.248 0 0 0
28 2 0.05 -0.0979121 0.0824372 0 -400.069 1059.25 0 0 0
8 1 0.05 0.135711 0.0408582 0 -1106.08 233.957 0 0 0
6 1 0.05 0.161592 0.0466844 0 3341.97 1016.63 0 0 0
11 1 0.05 -0.22804 0.0915391 0 550.917 2214.95 0 0 0
20 1 0.05 -0.0944885 0.104658 0 -459.526 26.9229 0 0 0
13 1 0.05 -0.0258576 0.123705 0 661.05 183.455 0 0 0
37 2 0.05 0.144834 0.0889533 0 83.0622 -531.84 0 0 0
34 2 0.05 -0.192737 0.186259 0 -252.238 -1071.14 0 0 0
46 2 0.05 -0.117768 0.191619 0 522.175 -283.285 0 0 0
42 2 0.05 0.0530443 0.143969 0 -546.34 -260.11 0 0 0
41 2 0.05 0.129819 0.16248 0 437.682 -574.797 0 0 0
23 1 0.05 0.19402 0.13891 0 -94.0887 74.2357 0 0 0
30 2 0.05 0.207645 0.151694 0 554.937 57.5408 0 0 0
35 2 0.05 -0.209645 0.245089 0 98.3379 996.864 0 0 0
21 1 0.05 -0.164359 0.247912 0 -2294.26 -1426.89 0 0 0
9 1 0.05 -0.0407605 0.231581 0 0 0 0 0 0
54 2 0.05 0.00280285 0.232461 0 520.483 -355.911 0 0 0
19 1 0.05 0.105124 0.22338 0 -23.9578 -26.5509 0 0 0
45 2 0.05 0.107988 0.211561 0 -437.23 1431.15 0 0 0
