ITEM: TIMESTEP
1300000
ITEM: NUMBER OF ATOMS
56
ITEM: BOX BOUNDS pp pp ff
-2.5000000000000000e-01 2.5000000000000000e-01
-2.5000000000000000e-01 2.5000000000000000e-01
-1.0000000000000001e-01 1.0000000000000001e-01
ITEM: ATOMS id type radius x y z fx fy fz c_bendingE c_stretchingE
41 2 0.05 -0.153372 -0.228516 0 -477.157 -907.87 0 0 0
14 1 0.05 -0.131779 -0.245553 0 -326.587 937.395 0 0 0
15 1 0.05 0.00857309 -0.215773 0 -229.504 693 0 0 0
4 1 0.05 0.10356 -0.200795 0 1278.52 -2753.87 0 0 0
49 2 0.05 0.233041 -0.228652 0 473.137 -250.667 0 0 0
35 2 0.05 -0.123702 -0.173415 0 935.885 661.002 0 0 0
11 1 0.05 -0.137981 -0.156817 0 176.623 -2029.41 0 0 0
29 2 0.05 0.0997097 -0.159926 0 -639.165 -1379.67 0 0 0
24 1 0.05 0.0942667 -0.180208 0 -1165.87 2792.12 0 0 0
42 2 0.05 0.170481 -0.184776 0 -1033.56 -1476.32 0 0 0
34 2 0.05 0.19514 -0.150518 0 973.642 1710.35 0 0 0
18 1 0.05 0.247435 -0.145514 0 0 0 0 0 0
32 2 0.05 -0.227942 -0.102897 0 -1510.36 -7.10571 0 0 0
17 1 0.05 -0.141178 -0.119534 0 -185.034 2184.76 0 0 0
51 2 0.05 -0.191525 -0.138321 0 667.087 -1002.8 0 0 0
43 2 0.05 -0.0351007 -0.0918723 0 987.726 -1945.32 0 0 0
44 2 0.05 0.10223 -0.10979 0 -176.832 1309.93 0 0 0
39 2 0.05 -0.204344 -0.0511513 0 737.074 900.817 0 0 0
13 1 0.05 -0.177599 -0.0279965 0 462.93 -1125.65 0 0 0
30 2 0.05 -0.109323 -0.03463 0 -1954.64 -1231.96 0 0 0
54 2 0.05 -0.0581938 -0.0526283 0 -153.4 -804.765 0 0 0
25 1 0.05 -0.0518506 -0.0441563 0 1154.71 -718.451 0 0 0
50 2 0.05 0.160352 -0.0528418 0 -29.0774 64.0265 0 0 0
8 1 0.05 0.241346 -0.0394156 0 -615.815 -2902.41 0 0 0
2 1 0.05 -0.0982021 -0.0153169 0 -663.474 224.669 0 0 0
40 2 0.05 -0.105212 0.0181686 0 71.8173 1499.78 0 0 0
46 2 0.05 -0.040999 -0.0109459 0 1861.08 1944.18 0 0 0
52 2 0.05 0.0522448 0.00208475 0 155.386 -379.752 0 0 0
1 1 0.05 0.172282 0.0249569 0 -350.18 204.748 0 0 0
10 1 0.05 0.244264 -0.0136365 0 30.0655 2601.77 0 0 0
48 2 0.05 0.228956 -0.00794828 0 -84.9568 266.854 0 0 0
5 1 0.05 -0.18343 0.0335105 0 -390.158 704.548 0 0 0
56 2 0.05 -0.172625 0.0298132 0 -808.675 129.054 0 0 0
22 1 0.05 -0.111796 0.0583472 0 137.279 64.2912 0 0 0
16 1 0.05 0.0154912 0.0822933 0 -309.325 -1062.8 0 0 0
28 2 0.05 0.0336137 0.0798184 0 -138.247 6.53999 0 0 0
45 2 0.05 0.24268 0.0807547 0 2302.17 -1253.02 0 0 0
26 1 0.05 -0.237091 0.107856 0 -845.974 -46.6843 0 0 0
12 1 0.05 -0.169797 0.11928 0 602.871 517.44 0 0 0
55 2 0.05 -0.167292 0.113316 0 47.5739 -592.099 0 0 0
36 2 0.05 -0.0982451 0.101079 0 740.316 178.227 0 0 0
9 1 0.05 -0.0605708 0.109576 0 -584.651 -147.484 0 0 0
23 1 0.05 0.0686878 0.123182 0 -1808.4 1078.47 0 0 0
7 1 0.05 0.0972461 0.116478 0 2727.79 -537.563 0 0 0
47 2 0.05 0.21843 0.0951151 0 -2330.11 1314.76 0 0 0
33 2 0.05 -0.199765 0.160395 0 314.49 542.009 0 0 0
3 1 0.05 -0.0173448 0.155368 0 55.216 516.162 0 0 0
37 2 0.05 0.0430557 0.159699 0 77.8102 104.983 0 0 0
27 2 0.05 0.181236 0.184513 0 -926.146 -4.50316 0 0 0
31 2 0.05 0.246291 0.186479 0 -50.1888 326.406 0 0 0
6 1 0.05 -0.229427 0.213148 0 535.501 -229.777 0 0 0
19 1 0.05 -0.114345 0.197692 0 358.2 -1071.58 0 0 0
38 2 0.05 -0.0540944 0.207242 0 -53.6867 -22.1968 0 0 0
20 1 0.05 0.0195742 0.21538 0 490.758 -123.46 0 0 0
53 2 0.05 0.0331905 0.24333 0 21.0193 299.129 0 0 0
21 1 0.05 0.202393 0.242403 0 -535.501 229.777 0 0 0
