ITEM: TIMESTEP
1500000
ITEM: NUMBER OF ATOMS
48
ITEM: BOX BOUNDS pp pp ff
-2.5000000000000000e-01 2.5000000000000000e-01
-2.5000000000000000e-01 2.5000000000000000e-01
-1.0000000000000001e-01 1.0000000000000001e-01
ITEM: ATOMS id type radius x y z fx fy fz c_bendingE c_stretchingE
11 1 0.005 -0.10481 -0.219507 0 0 0 0 0 0
46 2 0.005 0.178 -0.196343 0 0 0 0 0 0
34 2 0.005 0.154699 -0.186959 0 0 0 0 0 0
41 2 0.005 -0.133082 -0.177238 0 0 0 0 0 0
7 1 0.005 -0.157237 -0.170121 0 0 0 0 0 0
22 1 0.005 -0.137831 -0.153145 0 0 0 0 0 0
15 1 0.005 0.0778613 -0.148808 0 0 0 0 0 0
8 1 0.005 0.159549 -0.146926 0 0 0 0 0 0
20 1 0.005 0.204067 -0.14333 0 0 0 0 0 0
3 1 0.005 -0.0377407 -0.13435 0 0 0 0 0 0
44 2 0.005 -0.247094 -0.123283 0 0 0 0 0 0
6 1 0.005 -0.207657 -0.123385 0 0 0 0 0 0
12 1 0.005 0.150691 -0.11319 0 0 0 0 0 0
10 1 0.005 0.125309 -0.102481 0 0 0 0 0 0
48 2 0.005 -0.210243 -0.08479 0 0 0 0 0 0
35 2 0.005 0.0353436 -0.0792826 0 0 0 0 0 0
27 2 0.005 -0.101997 -0.0650911 0 0 0 0 0 0
9 1 0.005 -0.0395834 -0.0548191 0 0 0 0 0 0
47 2 0.005 -0.0640172 -0.0344667 0 0 0 0 0 0
23 1 0.005 0.141805 -0.0144908 0 0 0 0 0 0
31 2 0.005 0.145587 -0.00412185 0 0 0 0 0 0
39 2 0.005 -0.15807 0.00199447 0 0 0 0 0 0
38 2 0.005 -0.223302 0.00909641 0 0 0 0 0 0
14 1 0.005 0.195996 0.0164095 0 0 0 0 0 0
17 1 0.005 -0.00617203 0.0267442 0 0 0 0 0 0
30 2 0.005 0.124965 0.0426083 0 0 0 0 0 0
4 1 0.005 -0.0392333 0.0624828 0 0 0 0 0 0
32 2 0.005 0.226493 0.0721681 0 0 0 0 0 0
21 1 0.005 -0.204468 0.0761852 0 0 0 0 0 0
25 2 0.005 -0.105136 0.0817482 0 0 0 0 0 0
37 2 0.005 -0.192547 0.0865099 0 0 0 0 0 0
28 2 0.005 0.0699789 0.115507 0 0 0 0 0 0
18 1 0.005 0.191846 0.111138 0 0 0 0 0 0
24 2 0.005 0.106817 0.116898 0 0 0 0 0 0
2 1 0.005 -0.124295 0.127815 0 -3.7024e-14 -3.7024e-14 0 0 0
45 2 0.005 0.130001 0.164483 0 0 0 0 0 0
29 2 0.005 0.161156 0.16663 0 0 0 0 0 0
33 2 0.005 0.2083 0.169415 0 0 0 0 0 0
36 2 0.005 -0.0593861 0.175934 0 0 0 0 0 0
43 2 0.005 -0.0302944 0.185961 0 0 0 0 0 0
40 2 0.005 0.116131 0.183911 0 0 0 0 0 0
16 1 0.005 -0.0430665 0.190213 0 0 0 0 0 0
42 2 0.005 0.0796987 0.190451 0 0 0 0 0 0
19 1 0.005 -0.142704 0.198076 0 0 0 0 0 0
1 1 0.005 -0.126517 0.202439 0 3.7024e-14 3.7024e-14 0 0 0
5 1 0.005 0.0516029 0.201437 0 0 0 0 0 0
26 2 0.005 0.162183 0.207905 0 0 0 0 0 0
13 1 0.005 0.180274 0.229381 0 0 0 0 0 0
