ITEM: TIMESTEP
100000
ITEM: NUMBER OF ATOMS
56
ITEM: BOX BOUNDS pp pp ff
-2.5000000000000000e-01 2.5000000000000000e-01
-2.5000000000000000e-01 2.5000000000000000e-01
-1.0000000000000001e-01 1.0000000000000001e-01
ITEM: ATOMS id type radius x y z fx fy fz c_bendingE c_stretchingE
41 2 0.05 -0.134491 -0.205762 0 -114.273 1308.72 0 0 0
16 1 0.05 -0.0577887 -0.212468 0 682.094 -388.491 0 0 0
20 1 0.05 0.0192141 -0.209554 0 233.688 24.7844 0 0 0
52 2 0.05 0.0162668 -0.225756 0 530.128 1115.88 0 0 0
38 2 0.05 0.24829 -0.224399 0 -218.852 -732.857 0 0 0
49 2 0.05 -0.231949 -0.158226 0 168.343 609.368 0 0 0
22 1 0.05 -0.245131 -0.146475 0 1204.8 220.785 0 0 0
14 1 0.05 -0.0785717 -0.162683 0 -854.313 709.452 0 0 0
44 2 0.05 0.116513 -0.141607 0 19.2498 1456.02 0 0 0
7 1 0.05 0.101486 -0.187407 0 -44.4 58.595 0 0 0
39 2 0.05 0.101985 -0.181036 0 -616.57 -1946.05 0 0 0
15 1 0.05 0.187465 -0.193687 0 -167.064 -2218.1 0 0 0
4 1 0.05 0.189159 -0.153637 0 -597.919 960.597 0 0 0
36 2 0.05 -0.153925 -0.114899 0 23.866 -154.22 0 0 0
23 1 0.05 -0.0434502 -0.0997264 0 316.991 567.307 0 0 0
37 2 0.05 0.0408943 -0.116535 0 -508.312 232.274 0 0 0
50 2 0.05 0.178411 -0.131165 0 630.578 -1221.5 0 0 0
43 2 0.05 -0.224409 -0.0497501 0 307.867 -395.588 0 0 0
33 2 0.05 -0.121574 -0.0385077 0 -122.819 -277.04 0 0 0
1 1 0.05 0.0383966 -0.0283616 0 1041.05 674.536 0 0 0
5 1 0.05 0.0582676 -0.0746541 0 725.281 -1547.78 0 0 0
48 2 0.05 0.0818872 -0.0281116 0 -189.802 99.0972 0 0 0
24 1 0.05 0.190824 -0.0795518 0 3272.37 -13.9152 0 0 0
3 1 0.05 0.165867 -0.0793461 0 -2752.07 -690.748 0 0 0
42 2 0.05 0.161893 -0.0616828 0 -1194.59 1084.01 0 0 0
54 2 0.05 0.214 -0.0785944 0 1088.76 80.6914 0 0 0
40 2 0.05 -0.193771 0.00941304 0 146.111 791.589 0 0 0
8 1 0.05 -0.160212 -0.0237525 0 0.512888 -74.9614 0 0 0
46 2 0.05 -0.0709839 0.0144372 0 542.745 -256.567 0 0 0
26 1 0.05 -0.00248208 -0.00976163 0 -1764.28 877.71 0 0 0
18 1 0.05 0.152311 -0.0224536 0 -754.837 1664.41 0 0 0
2 1 0.05 -0.160851 0.0696684 0 39.3313 -30.3463 0 0 0
56 2 0.05 -0.13866 0.0823492 0 -1401.98 -240.629 0 0 0
32 2 0.05 0.0213013 0.0706795 0 114.241 -1423.2 0 0 0
17 1 0.05 0.0766592 0.0637652 0 0.204692 0.492846 0 0 0
9 1 0.05 0.182902 0.0622007 0 -174.465 -395.719 0 0 0
35 2 0.05 -0.0805306 0.0851495 0 993.441 -924.111 0 0 0
12 1 0.05 -0.0302099 0.111629 0 -778.759 -1988.2 0 0 0
45 2 0.05 0.017053 0.123603 0 485.243 1166.63 0 0 0
27 2 0.05 0.164619 0.0925299 0 -305.722 -15.6426 0 0 0
10 1 0.05 0.211807 0.130858 0 210.49 524.684 0 0 0
30 2 0.05 0.247708 0.0967812 0 -23.8637 -710.295 0 0 0
28 2 0.05 -0.224101 0.158874 0 255.665 670.301 0 0 0
13 1 0.05 -0.193186 0.15513 0 -492.21 3.67197 0 0 0
47 2 0.05 -0.0878432 0.144683 0 -1900.25 931.617 0 0 0
21 1 0.05 -0.11747 0.170785 0 236.869 -525.256 0 0 0
31 2 0.05 -0.0493066 0.152005 0 1696.01 1076.82 0 0 0
11 1 0.05 -0.0161108 0.147624 0 261.671 1450.04 0 0 0
34 2 0.05 0.127442 0.189999 0 707.31 -524.443 0 0 0
55 2 0.05 -0.150249 0.214459 0 -2011.47 -1626.06 0 0 0
29 2 0.05 -0.12277 0.233772 0 2087.19 376.38 0 0 0
25 1 0.05 -0.0922636 0.23804 0 -401.779 -289.235 0 0 0
51 2 0.05 -0.0291989 0.240958 0 -941.026 -638.778 0 0 0
53 2 0.05 0.0744134 0.229318 0 -247.207 87.5873 0 0 0
6 1 0.05 0.0320857 0.197784 0 527.101 466.069 0 0 0
19 1 0.05 0.244012 0.230788 0 29.6409 -40.3928 0 0 0
