ITEM: TIMESTEP
200000
ITEM: NUMBER OF ATOMS
56
ITEM: BOX BOUNDS pp pp ff
-2.5000000000000000e-01 2.5000000000000000e-01
-2.5000000000000000e-01 2.5000000000000000e-01
-1.0000000000000001e-01 1.0000000000000001e-01
ITEM: ATOMS id type radius x y z fx fy fz c_bendingE c_stretchingE
32 2 0.05 -0.196128 -0.223798 0 -1129.35 -510.209 0 0 0
45 2 0.05 0.0263866 -0.222184 0 -1178.14 -3106.9 0 0 0
21 1 0.05 0.0819301 -0.22163 0 -625.611 -926.784 0 0 0
28 2 0.05 0.0395921 -0.195509 0 1648.62 -116.433 0 0 0
35 2 0.05 0.133997 -0.199549 0 -725.436 -2229.86 0 0 0
16 1 0.05 0.17085 -0.243034 0 389.242 1056.83 0 0 0
52 2 0.05 -0.158183 -0.175769 0 -1615.49 325.935 0 0 0
43 2 0.05 -0.121963 -0.170443 0 1740.79 -528.36 0 0 0
3 1 0.05 0.00298322 -0.142286 0 583.351 -42.3181 0 0 0
31 2 0.05 0.0367081 -0.147114 0 2351.14 556.204 0 0 0
20 1 0.05 0.111036 -0.168073 0 494.773 981.574 0 0 0
46 2 0.05 0.141291 -0.160229 0 -674.058 1787.57 0 0 0
55 2 0.05 0.204467 -0.165535 0 1396.63 95.1565 0 0 0
14 1 0.05 0.240628 -0.162711 0 -110.089 -872.181 0 0 0
5 1 0.05 -0.249761 -0.0960822 0 1705.18 -876.41 0 0 0
39 2 0.05 -0.131184 -0.0926995 0 -572.579 747.264 0 0 0
54 2 0.05 -0.0673898 -0.128917 0 660.534 236.323 0 0 0
10 1 0.05 -0.0709502 -0.136923 0 -583.351 42.3181 0 0 0
40 2 0.05 0.00872907 -0.138775 0 -2972.53 1155.54 0 0 0
48 2 0.05 0.0490047 -0.0819262 0 836.542 1021.51 0 0 0
7 1 0.05 0.127899 -0.0551901 0 -654.531 -299.996 0 0 0
29 2 0.05 0.158574 -0.0798632 0 -604.847 -619.998 0 0 0
1 1 0.05 0.224898 -0.0691129 0 -710.824 597.809 0 0 0
53 2 0.05 0.23323 -0.0691902 0 777.864 -191.115 0 0 0
41 2 0.05 -0.10907 -0.00809312 0 -753.043 -173.977 0 0 0
50 2 0.05 -0.047532 0.0140901 0 53.3036 702.436 0 0 0
15 1 0.05 -0.0521536 0.0147438 0 2110.1 870.412 0 0 0
19 1 0.05 -0.070709 0.0157196 0 -4013.06 640.086 0 0 0
8 1 0.05 -0.0148012 -0.0191007 0 1902.73 -1510.9 0 0 0
38 2 0.05 0.011375 -0.0151656 0 550.648 41.3893 0 0 0
47 2 0.05 0.167987 -0.0149571 0 -699.63 -1122.16 0 0 0
17 1 0.05 0.191769 -0.0251674 0 -401.115 1243.32 0 0 0
37 2 0.05 0.199378 0.0159529 0 2089.31 606.566 0 0 0
9 1 0.05 -0.230506 0.0299608 0 1524.02 -2977.17 0 0 0
11 1 0.05 -0.212711 0.0685339 0 2431.04 2339.85 0 0 0
56 2 0.05 -0.178466 0.0570863 0 -1910.54 -1476.62 0 0 0
34 2 0.05 -0.152321 0.0781041 0 1863.14 1535.24 0 0 0
42 2 0.05 0.130157 0.0320219 0 -1833.76 -391.599 0 0 0
30 2 0.05 0.146915 0.0813041 0 -293.768 1114.59 0 0 0
12 1 0.05 0.243162 0.0441517 0 -3323.84 125.2 0 0 0
6 1 0.05 -0.00222961 0.101134 0 0.232331 0.402034 0 0 0
33 2 0.05 -0.0125686 0.114245 0 -363.051 -705.704 0 0 0
36 2 0.05 0.0726204 0.110416 0 -145.106 146.192 0 0 0
23 1 0.05 0.102945 0.092947 0 380.173 -1573.09 0 0 0
44 2 0.05 0.209093 0.0946348 0 1032.24 586.938 0 0 0
26 1 0.05 0.217928 0.114102 0 -445.257 703.119 0 0 0
18 1 0.05 -0.157811 0.168369 0 -2596.48 298.77 0 0 0
24 1 0.05 -0.123706 0.147086 0 709.027 -2511.53 0 0 0
25 1 0.05 -0.0966151 0.184362 0 2030.12 1645.02 0 0 0
51 2 0.05 -0.00172907 0.183528 0 109.58 708.285 0 0 0
4 1 0.05 0.0898593 0.141321 0 -1399.24 817.246 0 0 0
22 1 0.05 0.14275 0.177937 0 -1658.65 -1739.6 0 0 0
27 2 0.05 0.150649 0.170136 0 -11.1579 203.995 0 0 0
2 1 0.05 0.158236 0.19152 0 2404.73 1400.29 0 0 0
13 1 0.05 -0.172192 0.242176 0 -142.662 567.742 0 0 0
49 2 0.05 -0.144702 0.221174 0 372.128 -398.188 0 0 0
