ITEM: TIMESTEP
700000
ITEM: NUMBER OF ATOMS
56
ITEM: BOX BOUNDS pp pp ff
-2.5000000000000000e-01 2.5000000000000000e-01
-2.5000000000000000e-01 2.5000000000000000e-01
-1.0000000000000001e-01 1.0000000000000001e-01
ITEM: ATOMS id type radius x y z fx fy fz c_bendingE c_stretchingE
21 1 0.05 -0.209782 -0.23299 0 1768.43 2920.75 0 0 0
24 1 0.05 -0.107062 -0.218306 0 -212.944 358.349 0 0 0
42 2 0.05 0.00849156 -0.21474 0 -1874.26 -625.292 0 0 0
35 2 0.05 0.0480297 -0.201629 0 1880.06 623.393 0 0 0
33 2 0.05 0.232807 -0.233021 0 2262.83 845.618 0 0 0
52 2 0.05 -0.195264 -0.141345 0 -182.558 589.412 0 0 0
27 2 0.05 -0.153362 -0.18152 0 -580.239 -1852.83 0 0 0
30 2 0.05 -0.0853746 -0.184023 0 1371.82 -811.26 0 0 0
12 1 0.05 0.178859 -0.144871 0 1075.65 -192.998 0 0 0
18 1 0.05 0.146879 -0.144254 0 -2749.96 33.5068 0 0 0
29 2 0.05 0.179157 -0.185924 0 -852.785 868.022 0 0 0
1 1 0.05 0.231755 -0.13946 0 1674.31 159.491 0 0 0
47 2 0.05 -0.123058 -0.13266 0 702.032 1898.53 0 0 0
19 1 0.05 -0.0649751 -0.136102 0 -288.786 -395.58 0 0 0
38 2 0.05 0.16289 -0.0922633 0 -118.604 -308.991 0 0 0
32 2 0.05 0.249902 -0.13424 0 -1136.13 272.953 0 0 0
40 2 0.05 -0.113418 -0.0345325 0 528.96 -425.078 0 0 0
5 1 0.05 -0.0227602 -0.075094 0 312.935 381.589 0 0 0
37 2 0.05 -0.0201996 -0.0548073 0 -263.291 -626.393 0 0 0
8 1 0.05 0.169249 -0.0426017 0 -504.586 -244.657 0 0 0
15 1 0.05 0.240045 -0.0344504 0 626.23 20.6344 0 0 0
43 2 0.05 -0.224239 -0.00831865 0 -801.139 -833.167 0 0 0
39 2 0.05 -0.168969 0.00843307 0 596.851 795.728 0 0 0
23 1 0.05 -0.0767138 0.00911341 0 -672.715 -58.6474 0 0 0
41 2 0.05 -0.00958356 0.0221262 0 -635.312 76.1584 0 0 0
11 1 0.05 -0.00545745 0.0153256 0 -218.104 -93.9392 0 0 0
56 2 0.05 0.0508537 -0.0101078 0 -46.7451 -744.894 0 0 0
14 1 0.05 0.0814739 -0.0193278 0 130.7 -1305.15 0 0 0
49 2 0.05 0.103917 0.01838 0 707.824 641.444 0 0 0
31 2 0.05 0.181038 -0.0136992 0 171.328 80.6349 0 0 0
2 1 0.05 -0.196313 0.0336262 0 544.611 -1059.82 0 0 0
26 1 0.05 -0.245234 0.0778765 0 -1129.74 408.678 0 0 0
53 2 0.05 -0.0682857 0.0816543 0 -794.566 -942.988 0 0 0
10 1 0.05 0.057102 0.035896 0 -67.1281 1265.51 0 0 0
22 1 0.05 0.134854 0.0403025 0 561.592 -251.173 0 0 0
44 2 0.05 0.235039 0.0539327 0 -68.8684 466.09 0 0 0
6 1 0.05 -0.173949 0.105376 0 195.219 591.318 0 0 0
3 1 0.05 -0.0985616 0.125334 0 631.26 -319.886 0 0 0
28 2 0.05 -0.132818 0.108753 0 -146.582 -462.228 0 0 0
36 2 0.05 -0.0255942 0.110562 0 333.337 467.238 0 0 0
51 2 0.05 0.0296283 0.0890518 0 1081.22 -156.145 0 0 0
48 2 0.05 0.10191 0.131827 0 64.7356 -511.447 0 0 0
4 1 0.05 0.145555 0.109885 0 338.779 380.961 0 0 0
34 2 0.05 0.191287 0.12871 0 -608.132 -294.866 0 0 0
55 2 0.05 -0.170466 0.161978 0 -236.292 721.141 0 0 0
50 2 0.05 -0.0387048 0.173373 0 -185.371 962.52 0 0 0
7 1 0.05 0.0995124 0.175234 0 277.678 -396.753 0 0 0
45 2 0.05 0.246089 0.168854 0 460.221 325.049 0 0 0
20 1 0.05 -0.21958 0.246601 0 -263.785 -2563.19 0 0 0
9 1 0.05 -0.129069 0.196524 0 -693.033 121.929 0 0 0
13 1 0.05 -0.0548893 0.218468 0 -1053.99 -425.988 0 0 0
17 1 0.05 -0.00939815 0.226343 0 1039.18 271.639 0 0 0
16 1 0.05 0.0616283 0.229201 0 182.844 750.978 0 0 0
46 2 0.05 0.104913 0.203655 0 27.6683 661.767 0 0 0
54 2 0.05 0.202301 0.24452 0 -1658.02 -1700.11 0 0 0
25 1 0.05 0.21956 0.237106 0 -1504.64 -357.559 0 0 0
