ITEM: TIMESTEP
1500000
ITEM: NUMBER OF ATOMS
56
ITEM: BOX BOUNDS pp pp ff
-2.5000000000000000e-01 2.5000000000000000e-01
-2.5000000000000000e-01 2.5000000000000000e-01
-1.0000000000000001e-01 1.0000000000000001e-01
ITEM: ATOMS id type radius x y z fx fy fz c_bendingE c_stretchingE
43 2 0.05 -0.0627342 -0.239553 0 -1334.04 -224.63 0 0 0
15 1 0.05 -0.0713278 -0.230218 0 1389.72 891.283 0 0 0
41 2 0.05 -0.00874379 -0.230462 0 377.705 1010.89 0 0 0
46 2 0.05 0.0726628 -0.228665 0 -18.9475 2045.02 0 0 0
2 1 0.05 0.1018 -0.246732 0 116.404 -1295.14 0 0 0
38 2 0.05 0.152987 -0.241691 0 883.449 433.585 0 0 0
16 1 0.05 -0.234525 -0.152438 0 195.699 492.858 0 0 0
49 2 0.05 -0.154293 -0.149393 0 501.56 -1807.85 0 0 0
11 1 0.05 -0.115223 -0.191406 0 -901.476 276.845 0 0 0
1 1 0.05 0.0717965 -0.175009 0 -2544.56 748.991 0 0 0
25 1 0.05 0.106672 -0.180548 0 1800.43 -87.233 0 0 0
13 1 0.05 0.229797 -0.183468 0 -1218.97 -1160.65 0 0 0
5 1 0.05 -0.185083 -0.124102 0 -295.751 -25.6549 0 0 0
56 2 0.05 -0.182216 -0.111691 0 -1789.05 -297.114 0 0 0
14 1 0.05 -0.113348 -0.116064 0 1816.36 -1191.03 0 0 0
6 1 0.05 -0.134072 -0.0836395 0 -27.4431 1861.89 0 0 0
52 2 0.05 -0.0819641 -0.122365 0 105.814 -984.289 0 0 0
45 2 0.05 0.0237565 -0.101468 0 922.311 -453.904 0 0 0
32 2 0.05 0.106403 -0.134347 0 -381.306 -634.569 0 0 0
10 1 0.05 0.152942 -0.130696 0 695.93 -498.37 0 0 0
35 2 0.05 0.186565 -0.108397 0 1596.23 -1557.96 0 0 0
48 2 0.05 -0.173521 -0.0545143 0 -954.073 1472.56 0 0 0
55 2 0.05 -0.128429 -0.0678341 0 1830.74 738.478 0 0 0
47 2 0.05 -0.0335142 -0.0825652 0 -400.009 749.107 0 0 0
22 1 0.05 0.135359 -0.0600202 0 -3349.5 -869.971 0 0 0
12 1 0.05 0.155477 -0.05604 0 2906.18 -111.159 0 0 0
42 2 0.05 0.151526 -0.0583024 0 2678.63 3192.78 0 0 0
50 2 0.05 0.144165 -0.0632605 0 -3741.79 -1060.62 0 0 0
36 2 0.05 -0.241105 -0.0226988 0 -511.77 240.918 0 0 0
26 1 0.05 -0.178965 -0.0273157 0 -408.394 537.517 0 0 0
39 2 0.05 0.0138027 -0.0132463 0 142.714 402.462 0 0 0
4 1 0.05 0.0610226 -0.0183322 0 -220.099 123.432 0 0 0
8 1 0.05 0.162592 0.00199177 0 -1193.73 928.324 0 0 0
18 1 0.05 0.198969 0.0237927 0 1724.38 1105.46 0 0 0
3 1 0.05 -0.0846783 0.0529466 0 -1256.27 -215.601 0 0 0
7 1 0.05 -0.0302831 0.0575332 0 1355.29 114.277 0 0 0
51 2 0.05 0.103947 0.047424 0 -2510.71 -2382.61 0 0 0
37 2 0.05 0.122836 0.0598582 0 2883.46 658.087 0 0 0
53 2 0.05 -0.210254 0.11812 0 127.803 -346.088 0 0 0
20 1 0.05 -0.147543 0.117278 0 -193.081 -70.9048 0 0 0
30 2 0.05 -0.122041 0.127426 0 -425.816 -240.899 0 0 0
31 2 0.05 -0.0358432 0.0887877 0 238.2 -674.729 0 0 0
27 2 0.05 0.102338 0.117711 0 -372.753 1724.52 0 0 0
33 2 0.05 0.211243 0.136391 0 24.9699 -1561.98 0 0 0
23 1 0.05 -0.105597 0.194077 0 -1930.87 -1922.11 0 0 0
29 2 0.05 -0.0554146 0.157537 0 379.256 906.194 0 0 0
24 1 0.05 -0.02681 0.16986 0 -869.829 -1300.23 0 0 0
9 1 0.05 0.0448328 0.161069 0 1321.09 -1065.84 0 0 0
17 1 0.05 0.232036 0.164129 0 0 0 0 0 0
34 2 0.05 0.200196 0.182503 0 -593.339 1265.75 0 0 0
28 2 0.05 -0.239558 0.236233 0 -466.378 755.219 0 0 0
54 2 0.05 -0.185311 0.199573 0 797.485 -235.429 0 0 0
19 1 0.05 -0.0850322 0.218855 0 811.009 799.459 0 0 0
21 1 0.05 0.0119197 0.209252 0 277.479 1933.58 0 0 0
44 2 0.05 0.0293294 0.219202 0 -922.821 -1474.32 0 0 0
40 2 0.05 0.0921006 0.222667 0 932.471 -1658.59 0 0 0
