ITEM: TIMESTEP
1600000
ITEM: NUMBER OF ATOMS
56
ITEM: BOX BOUNDS pp pp ff
-2.5000000000000000e-01 2.5000000000000000e-01
-2.5000000000000000e-01 2.5000000000000000e-01
-1.0000000000000001e-01 1.0000000000000001e-01
ITEM: ATOMS id type radius x y z fx fy fz c_bendingE c_stretchingE
3 1 0.05 -0.210937 -0.215138 0 470.531 1495.02 0 0 0
50 2 0.05 -0.159738 -0.234435 0 -280.945 -507.414 0 0 0
53 2 0.05 -0.0390172 -0.212588 0 -451.98 873.484 0 0 0
26 1 0.05 -0.0478603 -0.225511 0 770.926 2219.15 0 0 0
1 1 0.05 0.182772 -0.200217 0 -218.885 -1454.22 0 0 0
48 2 0.05 0.175652 -0.229457 0 253.843 134.666 0 0 0
35 2 0.05 -0.171993 -0.171103 0 -1599.1 116.567 0 0 0
27 2 0.05 -0.121416 -0.148415 0 1186.25 -1411.62 0 0 0
47 2 0.05 0.0204944 -0.145066 0 1208.86 -1246.77 0 0 0
8 1 0.05 -0.222377 -0.106545 0 -45.7497 144.079 0 0 0
14 1 0.05 -0.145682 -0.119733 0 457.539 -78.679 0 0 0
29 2 0.05 -0.120482 -0.107355 0 259.771 2274.91 0 0 0
28 2 0.05 -0.00892248 -0.109425 0 -909.901 899.202 0 0 0
17 1 0.05 0.0502936 -0.101773 0 1025.06 -616.815 0 0 0
31 2 0.05 0.12807 -0.136323 0 46.3035 -287.316 0 0 0
20 1 0.05 0.188151 -0.128316 0 -3285.39 1673.69 0 0 0
2 1 0.05 0.196811 -0.134072 0 3108.86 -2192.49 0 0 0
38 2 0.05 -0.212394 -0.0592064 0 27.0672 -268.759 0 0 0
45 2 0.05 -0.0407172 -0.0395485 0 -1542.4 -1109.92 0 0 0
18 1 0.05 0.000330703 -0.0717083 0 -672.348 -797.261 0 0 0
51 2 0.05 0.114744 -0.0536358 0 -351.636 -3.09528 0 0 0
4 1 0.05 0.193977 -0.0667401 0 -16.3721 1907.62 0 0 0
34 2 0.05 -0.220866 0.02491 0 -278.93 -642.104 0 0 0
19 1 0.05 -0.145864 -0.00064511 0 0 0 0 0 0
44 2 0.05 0.0184965 -0.0118659 0 1488.32 -2132.47 0 0 0
36 2 0.05 -0.018188 0.0119712 0 -1872.76 1792.65 0 0 0
10 1 0.05 -0.0123624 -0.02082 0 -352.715 1414.08 0 0 0
25 1 0.05 0.146533 0.02245 0 1048.02 -2690.66 0 0 0
41 2 0.05 0.172137 0.000952329 0 305.333 290.411 0 0 0
5 1 0.05 0.0485563 0.0640681 0 -1821.38 -1161.77 0 0 0
37 2 0.05 0.0416731 0.043431 0 -1723.06 1731.73 0 0 0
30 2 0.05 0.0702288 0.0383842 0 2509.76 -685.619 0 0 0
9 1 0.05 0.138567 0.0554043 0 917.319 1193.59 0 0 0
15 1 0.05 0.0880789 0.0667794 0 106.829 272.95 0 0 0
55 2 0.05 -0.220726 0.103939 0 -2209.71 379.987 0 0 0
56 2 0.05 -0.186186 0.0917584 0 2395.39 -530.95 0 0 0
33 2 0.05 -0.0962527 0.127255 0 -1474.86 -546.925 0 0 0
11 1 0.05 -0.038022 0.121763 0 -913.09 15.4202 0 0 0
43 2 0.05 -0.0474149 0.137764 0 359.173 116.835 0 0 0
21 1 0.05 0.0271479 0.120663 0 254.454 1253.58 0 0 0
40 2 0.05 0.114041 0.0845948 0 934.05 856.56 0 0 0
7 1 0.05 0.141108 0.124496 0 -1264.7 669.897 0 0 0
24 1 0.05 0.215948 0.119489 0 1044.76 313.697 0 0 0
23 1 0.05 0.226626 0.0853843 0 1087.37 -2751.84 0 0 0
32 2 0.05 -0.2455 0.188304 0 -1822.03 754.786 0 0 0
49 2 0.05 -0.203629 0.174677 0 1863.26 297.191 0 0 0
16 1 0.05 -0.135369 0.179982 0 1631.6 -2900.2 0 0 0
52 2 0.05 0.0104103 0.146146 0 910.911 -264.713 0 0 0
22 1 0.05 0.19554 0.151353 0 -459.588 2885.13 0 0 0
13 1 0.05 -0.225974 0.237087 0 -560.346 -1449.18 0 0 0
6 1 0.05 -0.144042 0.195271 0 -1574.06 2834.22 0 0 0
54 2 0.05 -0.110702 0.212188 0 330.313 -244.951 0 0 0
12 1 0.05 -0.059223 0.241781 0 -738.653 -2199.01 0 0 0
42 2 0.05 -0.0176757 0.229241 0 344.57 -748.827 0 0 0
46 2 0.05 0.0732447 0.194661 0 -724.276 -1138.38 0 0 0
39 2 0.05 0.101544 0.231228 0 818.42 1250.85 0 0 0
