ITEM: TIMESTEP
1800000
ITEM: NUMBER OF ATOMS
56
ITEM: BOX BOUNDS pp pp ff
-2.5000000000000000e-01 2.5000000000000000e-01
-2.5000000000000000e-01 2.5000000000000000e-01
-1.0000000000000001e-01 1.0000000000000001e-01
ITEM: ATOMS id type radius x y z fx fy fz c_bendingE c_stretchingE
42 2 0.05 -0.223024 -0.19898 0 44.8151 -2001.08 0 0 0
13 1 0.05 -0.15563 -0.220603 0 522.896 1558.89 0 0 0
31 2 0.05 -0.132294 -0.233519 0 427.252 -71.8256 0 0 0
40 2 0.05 -0.0271354 -0.196357 0 -1275.06 -507.17 0 0 0
2 1 0.05 0.0141268 -0.238706 0 -1687.9 1147.93 0 0 0
4 1 0.05 0.0866282 -0.239292 0 624.435 1086.28 0 0 0
55 2 0.05 0.177194 -0.205016 0 1054.43 -645.22 0 0 0
6 1 0.05 0.147958 -0.245455 0 960.266 -122.706 0 0 0
11 1 0.05 0.238805 -0.228267 0 -1053.34 2767.25 0 0 0
51 2 0.05 -0.247952 -0.164531 0 -1286.2 1746.82 0 0 0
28 2 0.05 -0.16824 -0.176454 0 1005.49 1082.33 0 0 0
53 2 0.05 0.0195551 -0.164524 0 300.905 -867.734 0 0 0
10 1 0.05 0.0475805 -0.142682 0 -1048.79 -530.868 0 0 0
30 2 0.05 0.12713 -0.184524 0 -1366.87 35.7369 0 0 0
48 2 0.05 0.0400428 -0.12184 0 1419.76 123.776 0 0 0
22 1 0.05 0.10004 -0.116129 0 947.387 -254.921 0 0 0
27 2 0.05 0.140705 -0.108903 0 87.5754 487.883 0 0 0
14 1 0.05 -0.116362 -0.0318083 0 -418.281 101.567 0 0 0
52 2 0.05 -0.107318 -0.0404913 0 -32.1908 -505.392 0 0 0
39 2 0.05 -0.0534335 -0.0776722 0 67.5813 -520.811 0 0 0
1 1 0.05 -0.0396799 -0.0504283 0 -734.451 -403.376 0 0 0
43 2 0.05 0.0181 -0.0767616 0 -13.3305 1605.68 0 0 0
21 1 0.05 0.0168363 -0.0356312 0 -487.583 -258.42 0 0 0
24 1 0.05 0.0747389 -0.0456693 0 959.547 -347.895 0 0 0
5 1 0.05 0.184586 -0.074903 0 530.604 -2819.55 0 0 0
12 1 0.05 0.15862 -0.0581538 0 -3001.51 1382.89 0 0 0
16 1 0.05 0.212594 -0.0504485 0 2595.31 611.966 0 0 0
46 2 0.05 -0.194883 -0.000906568 0 -853.978 -1400.72 0 0 0
37 2 0.05 -0.139795 0.00751196 0 851.398 904.554 0 0 0
3 1 0.05 0.0518185 0.0197524 0 222.979 1215.69 0 0 0
35 2 0.05 0.0804967 0.0153394 0 136.194 -298.77 0 0 0
20 1 0.05 0.239046 0.00688231 0 1606.74 -747.771 0 0 0
32 2 0.05 -0.242469 0.0495542 0 -786.497 -356.029 0 0 0
49 2 0.05 -0.189994 0.0705958 0 991.627 1439.32 0 0 0
41 2 0.05 -0.0382337 0.0662672 0 544.187 -2792.35 0 0 0
9 1 0.05 0.215506 0.0398647 0 -1263.31 1373.49 0 0 0
29 2 0.05 0.200748 0.0763365 0 -962.439 -183.134 0 0 0
33 2 0.05 -0.064994 0.106907 0 -3068.7 -11.6557 0 0 0
45 2 0.05 -0.036118 0.122974 0 1208.09 2068.02 0 0 0
44 2 0.05 0.0284186 0.124693 0 -1698.66 589.356 0 0 0
23 1 0.05 0.0544919 0.104701 0 8.12986 258.324 0 0 0
54 2 0.05 0.0463211 0.0903107 0 973.944 -2842.2 0 0 0
17 1 0.05 0.165412 0.119555 0 -599.467 76.6618 0 0 0
8 1 0.05 0.24003 0.116508 0 627.677 165.408 0 0 0
56 2 0.05 -0.130709 0.193173 0 -986.74 -639.309 0 0 0
26 1 0.05 -0.0782201 0.155173 0 357.944 -1095.19 0 0 0
36 2 0.05 0.0558455 0.146387 0 2088.37 2699.25 0 0 0
38 2 0.05 0.188078 0.172168 0 -1739.15 2010.86 0 0 0
50 2 0.05 0.207441 0.150034 0 1788.89 -1397.24 0 0 0
7 1 0.05 -0.248774 0.240822 0 -349.448 -393.417 0 0 0
25 1 0.05 -0.233829 0.200516 0 179.795 -2502.97 0 0 0
18 1 0.05 -0.175152 0.233484 0 410.796 -1032.67 0 0 0
19 1 0.05 -0.0966556 0.211579 0 76.8109 892.011 0 0 0
47 2 0.05 -0.0677342 0.194883 0 836.827 593.029 0 0 0
15 1 0.05 0.0482132 0.224094 0 12.7587 -2128.62 0 0 0
34 2 0.05 0.0331661 0.246323 0 242.483 -345.961 0 0 0
