ITEM: TIMESTEP
300000
ITEM: NUMBER OF ATOMS
56
ITEM: BOX BOUNDS pp pp ff
-2.5000000000000000e-01 2.5000000000000000e-01
-2.5000000000000000e-01 2.5000000000000000e-01
-1.0000000000000001e-01 1.0000000000000001e-01
ITEM: ATOMS id type radius x y z fx fy fz c_bendingE c_stretchingE
27 2 0.05 -0.109046 -0.232575 0 93.3186 -1581.77 0 0 0
10 1 0.05 -0.0887733 -0.208459 0 -142.23 -223.769 0 0 0
25 1 0.05 -0.018004 -0.218472 0 670.459 -94.8628 0 0 0
9 1 0.05 0.162817 -0.21639 0 -14.22 224.89 0 0 0
46 2 0.05 -0.221287 -0.184852 0 -894.805 -726.429 0 0 0
51 2 0.05 -0.145389 -0.183721 0 -389.226 -1133.97 0 0 0
35 2 0.05 -0.160723 -0.140867 0 -484.461 1679.17 0 0 0
11 1 0.05 -0.11837 -0.141405 0 -247.665 561.105 0 0 0
54 2 0.05 -0.0827242 -0.146955 0 -301.187 1938.99 0 0 0
43 2 0.05 -0.0627361 -0.181286 0 1758.01 -1385.06 0 0 0
42 2 0.05 0.0493078 -0.173684 0 -1079.85 -1030.02 0 0 0
50 2 0.05 0.138393 -0.177689 0 986.813 -679.035 0 0 0
53 2 0.05 0.0907195 -0.139034 0 234.916 1561.86 0 0 0
33 2 0.05 -0.238221 -0.106689 0 -69.62 -806.269 0 0 0
28 2 0.05 -0.0111818 -0.110929 0 330.428 488.341 0 0 0
22 1 0.05 0.189688 -0.105223 0 -2049.58 105.774 0 0 0
7 1 0.05 0.222387 -0.113135 0 2336.28 -602.455 0 0 0
47 2 0.05 -0.220985 -0.0366657 0 1947.99 -198.768 0 0 0
17 1 0.05 -0.18935 -0.0673471 0 1.68362 0.873387 0 0 0
45 2 0.05 -0.123545 -0.0658261 0 73.7303 371.396 0 0 0
20 1 0.05 0.0477675 -0.0633563 0 -117.835 -20.3865 0 0 0
32 2 0.05 0.13666 -0.0496022 0 -193.491 -451.462 0 0 0
23 1 0.05 0.137456 -0.0478395 0 -166.003 -897.009 0 0 0
36 2 0.05 0.225629 -0.048497 0 -749.992 -1513.82 0 0 0
34 2 0.05 -0.230245 0.0250648 0 1235.71 1245.16 0 0 0
2 1 0.05 -0.102725 -0.00592836 0 -3.7024e-11 -3.7024e-11 0 0 0
48 2 0.05 0.0658335 -0.0145216 0 -146.255 -519.972 0 0 0
5 1 0.05 0.121876 0.00832925 0 -181.993 279.903 0 0 0
26 1 0.05 0.214866 -0.0175186 0 343.319 251.766 0 0 0
56 2 0.05 0.201871 -0.00853217 0 -1168.54 -249.39 0 0 0
18 1 0.05 -0.213944 0.0744913 0 -393.568 -2203.81 0 0 0
49 2 0.05 -0.0636366 0.0331776 0 3219.4 2727.95 0 0 0
39 2 0.05 -0.0653051 0.0315395 0 -2917.87 -3271.53 0 0 0
15 1 0.05 -0.00906224 0.059142 0 622.746 -357.875 0 0 0
44 2 0.05 0.043885 0.0514539 0 -235.404 707.406 0 0 0
16 1 0.05 0.109746 0.0727907 0 -554.668 16.2113 0 0 0
55 2 0.05 0.199587 0.0349172 0 -1072.25 1007.88 0 0 0
4 1 0.05 -0.204544 0.11237 0 1069.13 1653.8 0 0 0
31 2 0.05 -0.104711 0.104973 0 -779.852 -317.576 0 0 0
13 1 0.05 -0.0700411 0.0941848 0 -371.386 72.3276 0 0 0
21 1 0.05 0.136093 0.131428 0 203.191 283.678 0 0 0
29 2 0.05 0.210532 0.0924661 0 -451.338 710.755 0 0 0
30 2 0.05 -0.240862 0.139982 0 28.9174 -676.644 0 0 0
41 2 0.05 -0.215668 0.1891 0 647.857 1180.43 0 0 0
24 1 0.05 -0.123282 0.154667 0 -56.1852 93.065 0 0 0
38 2 0.05 -0.0739383 0.160376 0 350.619 880.583 0 0 0
37 2 0.05 0.0155795 0.14676 0 -5.44459 -58.6124 0 0 0
8 1 0.05 0.04881 0.159317 0 -347.562 -541.611 0 0 0
52 2 0.05 0.101629 0.173413 0 42.1396 11.9704 0 0 0
6 1 0.05 0.244805 0.19368 0 732.497 1417.76 0 0 0
14 1 0.05 0.232347 0.143927 0 -867.66 -1185.98 0 0 0
1 1 0.05 -0.173554 0.232946 0 -2777.14 -563.586 0 0 0
3 1 0.05 -0.149986 0.238638 0 2512.77 619.044 0 0 0
12 1 0.05 0.0774456 0.226437 0 202.203 588.028 0 0 0
19 1 0.05 0.168263 0.19748 0 -406.584 523.111 0 0 0
40 2 0.05 0.189492 0.201679 0 -10.2826 88.4306 0 0 0
