ITEM: TIMESTEP
1570
ITEM: NUMBER OF ATOMS
19
ITEM: BOX BOUNDS pp pp ff
-2.5000000000000000e-01 2.5000000000000000e-01
-2.5000000000000000e-01 2.5000000000000000e-01
-1.0000000000000001e-01 1.0000000000000001e-01
ITEM: ATOMS id type radius x y z fx fy fz c_bendingE c_stretchingE
4 1 0.005 0.0334688 -0.210993 0 0 0 0 0 0
8 1 0.005 0.0605302 -0.145363 0 0 0 0 0 0
3 1 0.005 0.226577 -0.143491 0 0 0 0 0 0
18 1 0.005 0.0955422 -0.00617967 0 0 0 0 0 0
15 1 0.005 -0.0827497 0.00958245 0 0 0 0 0 0
1 1 0.005 -0.088716 0.0225858 0 0 0 0 0 0
13 1 0.005 0.0844171 0.0336529 0 0 0 0 0 0
2 1 0.005 -0.14792 0.0497137 0 0 0 0 0 0
12 1 0.005 -0.197297 0.0791268 0 0 0 0 0 0
16 1 0.005 0.215752 0.0940179 0 0 0 0 0 0
5 1 0.005 0.246578 0.131263 0 0 0 0 0 0
9 1 0.005 -0.0713531 0.133381 0 0 0 0 0 0
14 1 0.005 -0.150551 0.151806 0 0 0 0 0 0
10 1 0.005 -0.0765971 0.154026 0 0 0 0 0 0
17 1 0.005 -0.10929 0.169805 0 0 0 0 0 0
11 1 0.005 -0.0964081 0.178459 0 0 0 0 0 0
19 1 0.005 0.0222147 0.188339 0 0 0 0 0 0
7 1 0.005 0.185422 0.203425 0 0 0 0 0 0
6 1 0.005 -0.0746456 0.231794 0 0 0 0 0 0
