ITEM: TIMESTEP
2000000
ITEM: NUMBER OF ATOMS
48
ITEM: BOX BOUNDS pp pp ff
-2.5000000000000000e-01 2.5000000000000000e-01
-2.5000000000000000e-01 2.5000000000000000e-01
-1.0000000000000001e-01 1.0000000000000001e-01
ITEM: ATOMS id type radius x y z fx fy fz c_bendingE c_stretchingE
12 1 0.005 0.0413848 -0.218327 0 0 0 0 0 0
46 2 0.005 0.178 -0.196343 0 0 0 0 0 0
15 1 0.005 0.0177995 -0.19014 0 0 0 0 0 0
17 1 0.005 0.00354279 -0.185376 0 0 0 0 0 0
18 1 0.005 0.0601919 -0.187348 0 0 0 0 0 0
34 2 0.005 0.154699 -0.186959 0 0 0 0 0 0
3 1 0.005 -0.156061 -0.181464 0 0 0 0 0 0
41 2 0.005 -0.133082 -0.177238 0 0 0 0 0 0
10 1 0.005 -0.128518 -0.158889 0 0 0 0 0 0
44 2 0.005 -0.247094 -0.123283 0 0 0 0 0 0
6 1 0.005 -0.152509 -0.112572 0 0 0 0 0 0
20 1 0.005 -0.0337053 -0.108956 0 0 0 0 0 0
7 1 0.005 0.0457249 -0.103508 0 0 0 0 0 0
48 2 0.005 -0.210243 -0.08479 0 0 0 0 0 0
35 2 0.005 0.0353436 -0.0792826 0 0 0 0 0 0
11 1 0.005 0.12589 -0.0786138 0 0 0 0 0 0
27 2 0.005 -0.101997 -0.0650911 0 0 0 0 0 0
22 1 0.005 0.0998608 -0.0480584 0 0 0 0 0 0
21 1 0.005 -0.131458 -0.0340317 0 0 0 0 0 0
47 2 0.005 -0.0640172 -0.0344667 0 0 0 0 0 0
1 1 0.005 0.155892 -0.0101858 0 3.7024e-14 3.7024e-14 0 0 0
31 2 0.005 0.145587 -0.00412185 0 0 0 0 0 0
39 2 0.005 -0.15807 0.00199447 0 0 0 0 0 0
38 2 0.005 -0.223302 0.00909641 0 0 0 0 0 0
30 2 0.005 0.124965 0.0426083 0 0 0 0 0 0
9 1 0.005 -0.00394679 0.0673397 0 0 0 0 0 0
32 2 0.005 0.226493 0.0721681 0 0 0 0 0 0
25 2 0.005 -0.105136 0.0817482 0 0 0 0 0 0
37 2 0.005 -0.192547 0.0865099 0 0 0 0 0 0
4 1 0.005 -0.0236125 0.0891522 0 0 0 0 0 0
8 1 0.005 0.0553747 0.0909358 0 0 0 0 0 0
28 2 0.005 0.0699789 0.115507 0 0 0 0 0 0
14 1 0.005 -0.0660568 0.118169 0 0 0 0 0 0
24 2 0.005 0.106817 0.116898 0 0 0 0 0 0
2 1 0.005 -0.220182 0.151354 0 -3.7024e-14 -3.7024e-14 0 0 0
16 1 0.005 -0.189747 0.152764 0 0 0 0 0 0
45 2 0.005 0.130001 0.164483 0 0 0 0 0 0
29 2 0.005 0.161156 0.16663 0 0 0 0 0 0
33 2 0.005 0.2083 0.169415 0 0 0 0 0 0
36 2 0.005 -0.0593861 0.175934 0 0 0 0 0 0
43 2 0.005 -0.0302944 0.185961 0 0 0 0 0 0
40 2 0.005 0.116131 0.183911 0 0 0 0 0 0
5 1 0.005 -0.101622 0.193451 0 0 0 0 0 0
42 2 0.005 0.0796987 0.190451 0 0 0 0 0 0
26 2 0.005 0.162183 0.207905 0 0 0 0 0 0
13 1 0.005 0.180703 0.21025 0 0 0 0 0 0
23 1 0.005 -0.18056 0.223434 0 0 0 0 0 0
19 1 0.005 0.209301 0.238387 0 0 0 0 0 0
