ITEM: TIMESTEP
2000000
ITEM: NUMBER OF ATOMS
56
ITEM: BOX BOUNDS pp pp ff
-2.5000000000000000e-01 2.5000000000000000e-01
-2.5000000000000000e-01 2.5000000000000000e-01
-1.0000000000000001e-01 1.0000000000000001e-01
ITEM: ATOMS id type radius x y z fx fy fz c_bendingE c_stretchingE
48 2 0.05 -0.192407 -0.201214 0 -1292.34 -1610.02 0 0 0
9 1 0.05 0.102409 -0.202631 0 -942.543 -137.507 0 0 0
46 2 0.05 -0.170874 -0.172051 0 743.478 769.189 0 0 0
17 1 0.05 -0.179077 -0.175387 0 -92.28 -57.2892 0 0 0
12 1 0.05 -0.0479331 -0.138954 0 1379.23 1025.07 0 0 0
6 1 0.05 -0.0502021 -0.194369 0 110.39 -1536.58 0 0 0
54 2 0.05 -0.0720563 -0.178022 0 673.526 -1581.15 0 0 0
49 2 0.05 0.106506 -0.15891 0 287.679 -430.308 0 0 0
23 1 0.05 0.165924 -0.193365 0 942.543 137.507 0 0 0
47 2 0.05 0.229987 -0.150545 0 460.221 -987.228 0 0 0
30 2 0.05 -0.14529 -0.11673 0 -673.408 1089.73 0 0 0
43 2 0.05 -0.090156 -0.133843 0 670.59 1258.05 0 0 0
2 1 0.05 -0.101272 -0.127085 0 -914.544 -194.542 0 0 0
39 2 0.05 0.0441376 -0.116274 0 -381.225 186.343 0 0 0
32 2 0.05 0.174335 -0.103905 0 -543.32 -1010.89 0 0 0
1 1 0.05 0.195768 -0.0848306 0 70.1357 -552.715 0 0 0
7 1 0.05 -0.226667 -0.0517162 0 175.105 120.899 0 0 0
41 2 0.05 -0.160626 -0.0351869 0 -58.709 177.46 0 0 0
14 1 0.05 -0.136249 -0.0717835 0 -454.307 701.969 0 0 0
45 2 0.05 0.00158254 -0.0365354 0 810.769 -2308.84 0 0 0
13 1 0.05 0.0375587 -0.0804247 0 0 0 0 0 0
31 2 0.05 0.136296 -0.0637879 0 -1063.38 988.897 0 0 0
20 1 0.05 0.142597 -0.0282819 0 -1188.1 -2295.41 0 0 0
29 2 0.05 0.224688 -0.0778612 0 1213.15 1122.31 0 0 0
16 1 0.05 -0.0602438 -0.0171688 0 58.4461 41.7251 0 0 0
28 2 0.05 -0.0252537 -0.00570965 0 -2307.96 991.901 0 0 0
33 2 0.05 0.029801 0.0195414 0 1508.17 1298.67 0 0 0
15 1 0.05 0.143918 0.0134876 0 -671.184 -334.985 0 0 0
5 1 0.05 0.194729 0.00710068 0 2166.32 -402.913 0 0 0
40 2 0.05 0.247637 0.0133796 0 15.6053 62.0451 0 0 0
24 1 0.05 -0.157418 0.0319343 0 0 0 0 0 0
35 2 0.05 -0.159933 0.0553446 0 -48.1308 -40.497 0 0 0
18 1 0.05 -0.0338278 0.079088 0 -1859.9 -2646.19 0 0 0
27 2 0.05 -0.0722322 0.078213 0 -1982.64 -795.841 0 0 0
38 2 0.05 0.130947 0.0641555 0 -1542.11 -2227.73 0 0 0
3 1 0.05 0.116582 0.060918 0 -3272 255.697 0 0 0
37 2 0.05 0.165806 0.0817108 0 2761.9 317.925 0 0 0
26 1 0.05 0.140022 0.0686627 0 2357.25 2455.5 0 0 0
10 1 0.05 0.234072 0.0647873 0 370.906 509.497 0 0 0
55 2 0.05 -0.224754 0.120887 0 -585.941 -1060.45 0 0 0
25 1 0.05 -0.194823 0.126085 0 3306.84 -2607.39 0 0 0
22 1 0.05 -0.197707 0.128434 0 -3199.52 2703.9 0 0 0
50 2 0.05 -0.0315679 0.0894307 0 1252.03 -1168.81 0 0 0
11 1 0.05 -0.0075069 0.106459 0 975.424 648.694 0 0 0
52 2 0.05 0.0172235 0.137883 0 2167.6 253.414 0 0 0
21 1 0.05 0.0405849 0.0992633 0 1936.67 -39.8409 0 0 0
42 2 0.05 0.116376 0.117635 0 -1219.78 1909.8 0 0 0
36 2 0.05 -0.167896 0.148785 0 1165.66 -230.503 0 0 0
4 1 0.05 -0.107654 0.177982 0 -488.904 261.409 0 0 0
8 1 0.05 -0.0414843 0.142602 0 -790.895 1891.16 0 0 0
56 2 0.05 -0.0304807 0.146538 0 -1387.09 1878.58 0 0 0
19 1 0.05 0.180629 0.153947 0 24.922 52.3413 0 0 0
34 2 0.05 0.243176 0.181396 0 -914.763 467.925 0 0 0
53 2 0.05 -0.189549 0.214703 0 270.419 680.013 0 0 0
51 2 0.05 0.0211101 0.241392 0 0 0 0 0 0
44 2 0.05 0.142384 0.222558 0 0 0 0 0 0
