ITEM: TIMESTEP
400000
ITEM: NUMBER OF ATOMS
56
ITEM: BOX BOUNDS pp pp ff
-2.5000000000000000e-01 2.5000000000000000e-01
-2.5000000000000000e-01 2.5000000000000000e-01
-1.0000000000000001e-01 1.0000000000000001e-01
ITEM: ATOMS id type radius x y z fx fy fz c_bendingE c_stretchingE
1 1 0.05 -0.165752 -0.228538 0 -1239.85 370.261 0 0 0
38 2 0.05 -0.106064 -0.198832 0 -111.945 488.998 0 0 0
25 1 0.05 -0.112024 -0.244583 0 1057.08 -14.1273 0 0 0
54 2 0.05 -0.0517328 -0.204957 0 1027.64 -72.2315 0 0 0
23 1 0.05 -0.00630492 -0.241225 0 -455.678 749.105 0 0 0
39 2 0.05 0.0289339 -0.213293 0 -1082.13 431.829 0 0 0
47 2 0.05 0.0792672 -0.223912 0 714.189 625.354 0 0 0
52 2 0.05 -0.249925 -0.161173 0 45.549 53.805 0 0 0
48 2 0.05 -0.163644 -0.184824 0 -988.993 257.4 0 0 0
9 1 0.05 0.120432 -0.18462 0 -886.083 7.83655 0 0 0
43 2 0.05 0.162633 -0.167373 0 -69.6647 -162.945 0 0 0
24 1 0.05 0.186301 -0.185203 0 816.604 95.6396 0 0 0
11 1 0.05 -0.137578 -0.0999366 0 -2032.03 -1693.96 0 0 0
13 1 0.05 -0.101737 -0.0895785 0 2692.48 -140.631 0 0 0
7 1 0.05 0.00860431 -0.101887 0 -173.119 -132.478 0 0 0
27 2 0.05 0.0074265 -0.100206 0 724.085 -788.943 0 0 0
46 2 0.05 0.107054 -0.0996105 0 -419.062 -191.838 0 0 0
15 1 0.05 -0.212355 -0.0406427 0 -565.609 -48.8233 0 0 0
4 1 0.05 -0.140696 -0.038373 0 42.5245 1828.82 0 0 0
51 2 0.05 -0.190197 -0.0761108 0 -2.67766 -8.48771 0 0 0
37 2 0.05 -0.0340294 -0.0551 0 -915.399 573.201 0 0 0
21 1 0.05 0.0773784 -0.0492579 0 545.183 -1860.23 0 0 0
18 1 0.05 0.168454 -0.0342809 0 -2313.17 405.609 0 0 0
5 1 0.05 0.193447 -0.0689744 0 956.648 -2428.29 0 0 0
28 2 0.05 0.158451 -0.0406877 0 -589.367 77.4655 0 0 0
40 2 0.05 -0.160589 0.0177409 0 -141.592 -337.197 0 0 0
53 2 0.05 0.0214594 0.00780195 0 478.274 -1134.24 0 0 0
20 1 0.05 0.0680544 -0.00967767 0 -22.1122 1626.28 0 0 0
12 1 0.05 0.205446 -0.00400567 0 1535.64 1415.68 0 0 0
49 2 0.05 0.220633 -0.0222003 0 886.958 263.701 0 0 0
32 2 0.05 -0.0892846 0.0641224 0 303.309 -716.16 0 0 0
3 1 0.05 0.00947409 0.0366662 0 -443.685 351.006 0 0 0
33 2 0.05 0.0101653 0.0607493 0 -247.915 1310.74 0 0 0
10 1 0.05 0.155885 0.0563062 0 -690.92 352.385 0 0 0
22 1 0.05 0.235632 0.0790321 0 -3345.82 -1394.36 0 0 0
6 1 0.05 0.244911 0.0821647 0 3628.01 705.185 0 0 0
44 2 0.05 -0.217868 0.0879831 0 1034.38 -947.566 0 0 0
34 2 0.05 -0.152352 0.109006 0 489.205 -431.91 0 0 0
45 2 0.05 -0.0561745 0.128264 0 650.003 354.959 0 0 0
29 2 0.05 0.119502 0.0955232 0 -305.387 -1170.65 0 0 0
35 2 0.05 0.240848 0.0933317 0 -1957.81 -349.544 0 0 0
8 1 0.05 -0.242976 0.155507 0 1374.23 510.536 0 0 0
41 2 0.05 -0.202911 0.161142 0 4.13627 1066.32 0 0 0
30 2 0.05 -0.119885 0.173071 0 194.745 -387.206 0 0 0
2 1 0.05 -0.0755395 0.184325 0 182.767 -356.134 0 0 0
56 2 0.05 0.0592058 0.155639 0 321.596 -576.31 0 0 0
19 1 0.05 0.0674436 0.155285 0 133.479 -827.761 0 0 0
55 2 0.05 0.146122 0.149847 0 287.912 654.593 0 0 0
17 1 0.05 0.142511 0.156452 0 -655.536 -240.938 0 0 0
14 1 0.05 0.198765 0.168067 0 -101.811 207.215 0 0 0
36 2 0.05 0.220831 0.168013 0 -146.481 625.686 0 0 0
50 2 0.05 -0.119337 0.229298 0 -130.917 610.145 0 0 0
42 2 0.05 0.0145388 0.198829 0 -770.456 561.046 0 0 0
26 1 0.05 0.0280528 0.202293 0 -230.755 70.0648 0 0 0
31 2 0.05 0.115841 0.230897 0 717.82 -680.014 0 0 0
16 1 0.05 0.236901 0.239439 0 191.534 442.088 0 0 0
