ITEM: TIMESTEP
600000
ITEM: NUMBER OF ATOMS
48
ITEM: BOX BOUNDS pp pp ff
-2.5000000000000000e-01 2.5000000000000000e-01
-2.5000000000000000e-01 2.5000000000000000e-01
-1.0000000000000001e-01 1.0000000000000001e-01
ITEM: ATOMS id type radius x y z fx fy fz c_bendingE c_stretchingE
21 1 0.005 0.150832 -0.246595 0 0 0 0 0 0
6 1 0.005 -0.0801313 -0.244391 0 0 0 0 0 0
23 1 0.005 -0.125348 -0.230259 0 0 0 0 0 0
2 1 0.005 -0.0754184 -0.218932 0 -3.7024e-14 -3.7024e-14 0 0 0
3 1 0.005 -0.134367 -0.210547 0 0 0 0 0 0
13 1 0.005 -0.116516 -0.202324 0 0 0 0 0 0
46 2 0.005 0.178 -0.196343 0 0 0 0 0 0
19 1 0.005 -0.0835077 -0.184519 0 0 0 0 0 0
7 1 0.005 -0.0298128 -0.185238 0 0 0 0 0 0
34 2 0.005 0.154699 -0.186959 0 0 0 0 0 0
41 2 0.005 -0.133082 -0.177238 0 0 0 0 0 0
10 1 0.005 0.18601 -0.157164 0 0 0 0 0 0
9 1 0.005 -0.0928347 -0.150609 0 0 0 0 0 0
5 1 0.005 0.123205 -0.14599 0 0 0 0 0 0
44 2 0.005 -0.247094 -0.123283 0 0 0 0 0 0
48 2 0.005 -0.210243 -0.08479 0 0 0 0 0 0
35 2 0.005 0.0353436 -0.0792826 0 0 0 0 0 0
14 1 0.005 0.105903 -0.0721307 0 0 0 0 0 0
27 2 0.005 -0.101997 -0.0650911 0 0 0 0 0 0
18 1 0.005 0.0563243 -0.0653627 0 0 0 0 0 0
47 2 0.005 -0.0640172 -0.0344667 0 0 0 0 0 0
22 1 0.005 0.0862236 -0.0132973 0 0 0 0 0 0
4 1 0.005 -0.0868448 -0.00494992 0 0 0 0 0 0
31 2 0.005 0.145587 -0.00412185 0 0 0 0 0 0
39 2 0.005 -0.15807 0.00199447 0 0 0 0 0 0
38 2 0.005 -0.223302 0.00909641 0 0 0 0 0 0
16 1 0.005 -0.0923274 0.0161076 0 0 0 0 0 0
30 2 0.005 0.124965 0.0426083 0 0 0 0 0 0
20 1 0.005 0.154835 0.0654653 0 0 0 0 0 0
32 2 0.005 0.226493 0.0721681 0 0 0 0 0 0
25 2 0.005 -0.105136 0.0817482 0 0 0 0 0 0
37 2 0.005 -0.192547 0.0865099 0 0 0 0 0 0
12 1 0.005 -0.118636 0.101379 0 0 0 0 0 0
28 2 0.005 0.0699789 0.115507 0 0 0 0 0 0
24 2 0.005 0.106817 0.116898 0 0 0 0 0 0
45 2 0.005 0.130001 0.164483 0 0 0 0 0 0
29 2 0.005 0.161156 0.16663 0 0 0 0 0 0
33 2 0.005 0.2083 0.169415 0 0 0 0 0 0
36 2 0.005 -0.0593861 0.175934 0 0 0 0 0 0
43 2 0.005 -0.0302944 0.185961 0 0 0 0 0 0
40 2 0.005 0.116131 0.183911 0 0 0 0 0 0
42 2 0.005 0.0796987 0.190451 0 0 0 0 0 0
15 1 0.005 -0.029983 0.202742 0 0 0 0 0 0
17 1 0.005 0.045082 0.204279 0 0 0 0 0 0
8 1 0.005 0.131703 0.202077 0 0 0 0 0 0
26 2 0.005 0.162183 0.207905 0 0 0 0 0 0
11 1 0.005 0.0665511 0.222133 0 0 0 0 0 0
1 1 0.005 0.0667456 0.235894 0 3.7024e-14 3.7024e-14 0 0 0
