ITEM: TIMESTEP
1800000
ITEM: NUMBER OF ATOMS
48
ITEM: BOX BOUNDS pp pp ff
-2.5000000000000000e-01 2.5000000000000000e-01
-2.5000000000000000e-01 2.5000000000000000e-01
-1.0000000000000001e-01 1.0000000000000001e-01
ITEM: ATOMS id type radius x y z fx fy fz c_bendingE c_stretchingE
23 1 0.005 -0.193918 -0.24675 0 0 0 0 0 0
7 1 0.005 0.249066 -0.249919 0 0 0 0 0 0
46 2 0.005 0.178 -0.196343 0 0 0 0 0 0
34 2 0.005 0.154699 -0.186959 0 0 0 0 0 0
41 2 0.005 -0.133082 -0.177238 0 0 0 0 0 0
2 1 0.005 -0.0377581 -0.164497 0 -3.7024e-14 -3.7024e-14 0 0 0
1 1 0.005 0.142216 -0.155939 0 3.7024e-14 3.7024e-14 0 0 0
20 1 0.005 0.220766 -0.161082 0 0 0 0 0 0
44 2 0.005 -0.247094 -0.123283 0 0 0 0 0 0
18 1 0.005 0.225481 -0.11412 0 0 0 0 0 0
14 1 0.005 -0.0990325 -0.103025 0 0 0 0 0 0
16 1 0.005 0.207676 -0.1001 0 0 0 0 0 0
13 1 0.005 0.0458015 -0.0986265 0 0 0 0 0 0
48 2 0.005 -0.210243 -0.08479 0 0 0 0 0 0
12 1 0.005 -0.00904183 -0.0884029 0 0 0 0 0 0
35 2 0.005 0.0353436 -0.0792826 0 0 0 0 0 0
10 1 0.005 -0.104361 -0.0772118 0 0 0 0 0 0
27 2 0.005 -0.101997 -0.0650911 0 0 0 0 0 0
22 1 0.005 0.00417396 -0.0663336 0 0 0 0 0 0
47 2 0.005 -0.0640172 -0.0344667 0 0 0 0 0 0
4 1 0.005 -0.0385191 -0.0141839 0 0 0 0 0 0
31 2 0.005 0.145587 -0.00412185 0 0 0 0 0 0
39 2 0.005 -0.15807 0.00199447 0 0 0 0 0 0
38 2 0.005 -0.223302 0.00909641 0 0 0 0 0 0
3 1 0.005 -0.164432 0.0191879 0 0 0 0 0 0
11 1 0.005 0.177482 0.0186896 0 0 0 0 0 0
8 1 0.005 -0.0167588 0.0341648 0 0 0 0 0 0
30 2 0.005 0.124965 0.0426083 0 0 0 0 0 0
5 1 0.005 0.00579804 0.0636632 0 0 0 0 0 0
32 2 0.005 0.226493 0.0721681 0 0 0 0 0 0
25 2 0.005 -0.105136 0.0817482 0 0 0 0 0 0
37 2 0.005 -0.192547 0.0865099 0 0 0 0 0 0
21 1 0.005 0.0212382 0.0866736 0 0 0 0 0 0
28 2 0.005 0.0699789 0.115507 0 0 0 0 0 0
24 2 0.005 0.106817 0.116898 0 0 0 0 0 0
9 1 0.005 0.0729922 0.136419 0 0 0 0 0 0
17 1 0.005 -0.0578064 0.160615 0 0 0 0 0 0
6 1 0.005 -0.0382575 0.160954 0 0 0 0 0 0
15 1 0.005 -0.0183001 0.159763 0 0 0 0 0 0
45 2 0.005 0.130001 0.164483 0 0 0 0 0 0
29 2 0.005 0.161156 0.16663 0 0 0 0 0 0
33 2 0.005 0.2083 0.169415 0 0 0 0 0 0
36 2 0.005 -0.0593861 0.175934 0 0 0 0 0 0
43 2 0.005 -0.0302944 0.185961 0 0 0 0 0 0
40 2 0.005 0.116131 0.183911 0 0 0 0 0 0
42 2 0.005 0.0796987 0.190451 0 0 0 0 0 0
26 2 0.005 0.162183 0.207905 0 0 0 0 0 0
19 1 0.005 0.0131821 0.21783 0 0 0 0 0 0
