ITEM: TIMESTEP
1000000
ITEM: NUMBER OF ATOMS
56
ITEM: BOX BOUNDS pp pp ff
-2.5000000000000000e-01 2.5000000000000000e-01
-2.5000000000000000e-01 2.5000000000000000e-01
-1.0000000000000001e-01 1.0000000000000001e-01
ITEM: ATOMS id type radius x y z fx fy fz c_bendingE c_stretchingE
25 1 0.05 -0.168272 -0.222749 0 -210.929 -1070.23 0 0 0
23 1 0.05 -0.0960516 -0.199517 0 -171.559 1047.85 0 0 0
20 1 0.05 -0.016662 -0.24999 0 28.6204 810.339 0 0 0
13 1 0.05 0.0337994 -0.196007 0 251.809 587.696 0 0 0
1 1 0.05 0.10717 -0.243844 0 69.6811 110.973 0 0 0
34 2 0.05 -0.224847 -0.161481 0 -168.62 -586.578 0 0 0
2 1 0.05 -0.236146 -0.162531 0 -1314.52 28.0304 0 0 0
15 1 0.05 -0.183782 -0.157739 0 1229.04 967.047 0 0 0
28 2 0.05 -0.137873 -0.193641 0 134.094 -559.532 0 0 0
44 2 0.05 -0.0515984 -0.156797 0 312.869 -2311.75 0 0 0
31 2 0.05 0.180595 -0.176212 0 -163.927 -276.749 0 0 0
19 1 0.05 0.182692 -0.190431 0 -379.159 453.087 0 0 0
37 2 0.05 -0.155006 -0.11941 0 382.447 383.045 0 0 0
26 1 0.05 -0.0491297 -0.128282 0 137.781 209.176 0 0 0
47 2 0.05 -0.0552245 -0.121846 0 220.428 1408.17 0 0 0
35 2 0.05 0.0772805 -0.138872 0 -662.962 -893.937 0 0 0
40 2 0.05 0.121693 -0.0961478 0 -43.404 -1462.81 0 0 0
54 2 0.05 0.216026 -0.100566 0 -728.454 -146.651 0 0 0
41 2 0.05 -0.222916 -0.076328 0 864.471 -542.944 0 0 0
10 1 0.05 -0.190891 -0.0538676 0 -2709.97 168.849 0 0 0
14 1 0.05 -0.166753 -0.055119 0 2930.84 -151.95 0 0 0
29 2 0.05 -0.0837257 -0.065973 0 -341.827 1026.54 0 0 0
45 2 0.05 0.0315842 -0.0638875 0 -135.605 174.817 0 0 0
55 2 0.05 0.132377 -0.03923 0 -2896.3 2023.41 0 0 0
27 2 0.05 0.150917 -0.0441659 0 3505.29 312.961 0 0 0
8 1 0.05 0.222904 -0.0604633 0 -220.869 -16.8991 0 0 0
36 2 0.05 -0.23682 -0.0239623 0 659.998 298.564 0 0 0
53 2 0.05 -0.0268117 0.0243608 0 -0.307743 -1.74112 0 0 0
21 1 0.05 0.00697097 -0.0137608 0 -841.851 -898.248 0 0 0
9 1 0.05 0.133016 0.00422198 0 136.013 -37.6061 0 0 0
30 2 0.05 0.230494 0.0161936 0 -970.688 601.628 0 0 0
43 2 0.05 -0.15228 0.0481167 0 -467.518 -496.362 0 0 0
6 1 0.05 -0.0707968 0.0618859 0 -54.998 -82.7762 0 0 0
17 1 0.05 0.0462963 0.0281989 0 1006.61 296.442 0 0 0
16 1 0.05 -0.21546 0.102216 0 479.856 -592.713 0 0 0
12 1 0.05 -0.127136 0.137304 0 7.88633 68.6698 0 0 0
49 2 0.05 -0.103365 0.100049 0 463.671 472.199 0 0 0
52 2 0.05 -0.00950061 0.122302 0 -1329.61 45.4663 0 0 0
22 1 0.05 0.0162233 0.092131 0 -208.022 671.65 0 0 0
50 2 0.05 0.0445602 0.108772 0 -214.617 -575.16 0 0 0
38 2 0.05 0.0952284 0.117007 0 1325.98 129.25 0 0 0
46 2 0.05 0.234736 0.0911311 0 73.7086 229.344 0 0 0
5 1 0.05 -0.229875 0.191498 0 1293.52 630.203 0 0 0
33 2 0.05 -0.182429 0.155206 0 -684.143 -2179.97 0 0 0
48 2 0.05 -0.167242 0.189339 0 1243.77 1908.5 0 0 0
4 1 0.05 0.0906204 0.171061 0 -55.694 -382.665 0 0 0
11 1 0.05 0.173936 0.191496 0 -904.181 -293.941 0 0 0
42 2 0.05 0.167156 0.166674 0 -1076.7 -24.1366 0 0 0
32 2 0.05 0.224009 0.172901 0 197.258 -754.1 0 0 0
24 1 0.05 0.230833 0.149568 0 -765.841 -955.357 0 0 0
56 2 0.05 -0.244962 0.212718 0 415.919 1503.31 0 0 0
51 2 0.05 -0.0687873 0.234676 0 -120.068 45.7962 0 0 0
3 1 0.05 -0.0712091 0.247349 0 -924.005 -1108.2 0 0 0
39 2 0.05 0.0156509 0.202052 0 204.864 249.422 0 0 0
18 1 0.05 0.0149357 0.210869 0 818.447 -1174.38 0 0 0
7 1 0.05 0.215497 0.241256 0 371.485 714.947 0 0 0
