ITEM: TIMESTEP
1300000
ITEM: NUMBER OF ATOMS
48
ITEM: BOX BOUNDS pp pp ff
-2.5000000000000000e-01 2.5000000000000000e-01
-2.5000000000000000e-01 2.5000000000000000e-01
-1.0000000000000001e-01 1.0000000000000001e-01
ITEM: ATOMS id type radius x y z fx fy fz c_bendingE c_stretchingE
13 1 0.005 0.227213 -0.249295 0 0 0 0 0 0
5 1 0.005 -0.199112 -0.219822 0 0 0 0 0 0
46 2 0.005 0.178 -0.196343 0 0 0 0 0 0
34 2 0.005 0.154699 -0.186959 0 0 0 0 0 0
41 2 0.005 -0.133082 -0.177238 0 0 0 0 0 0
14 1 0.005 -0.0832915 -0.155335 0 0 0 0 0 0
11 1 0.005 -0.0319097 -0.13892 0 0 0 0 0 0
44 2 0.005 -0.247094 -0.123283 0 0 0 0 0 0
48 2 0.005 -0.210243 -0.08479 0 0 0 0 0 0
35 2 0.005 0.0353436 -0.0792826 0 0 0 0 0 0
23 1 0.005 0.119506 -0.0684876 0 0 0 0 0 0
27 2 0.005 -0.101997 -0.0650911 0 0 0 0 0 0
21 1 0.005 -0.0220146 -0.062468 0 0 0 0 0 0
9 1 0.005 0.109382 -0.0631318 0 0 0 0 0 0
22 1 0.005 0.139591 -0.0511294 0 0 0 0 0 0
47 2 0.005 -0.0640172 -0.0344667 0 0 0 0 0 0
16 1 0.005 0.01217 -0.0178938 0 0 0 0 0 0
18 1 0.005 0.139309 -0.0133162 0 0 0 0 0 0
31 2 0.005 0.145587 -0.00412185 0 0 0 0 0 0
39 2 0.005 -0.15807 0.00199447 0 0 0 0 0 0
38 2 0.005 -0.223302 0.00909641 0 0 0 0 0 0
7 1 0.005 -0.0927203 0.0211036 0 0 0 0 0 0
12 1 0.005 0.0723505 0.0407692 0 0 0 0 0 0
30 2 0.005 0.124965 0.0426083 0 0 0 0 0 0
1 1 0.005 -0.03979 0.0478161 0 3.7024e-14 3.7024e-14 0 0 0
32 2 0.005 0.226493 0.0721681 0 0 0 0 0 0
25 2 0.005 -0.105136 0.0817482 0 0 0 0 0 0
37 2 0.005 -0.192547 0.0865099 0 0 0 0 0 0
28 2 0.005 0.0699789 0.115507 0 0 0 0 0 0
24 2 0.005 0.106817 0.116898 0 0 0 0 0 0
20 1 0.005 -0.240684 0.135478 0 0 0 0 0 0
3 1 0.005 -0.0554283 0.14436 0 0 0 0 0 0
19 1 0.005 0.167747 0.143404 0 0 0 0 0 0
2 1 0.005 -0.145866 0.155757 0 -3.7024e-14 -3.7024e-14 0 0 0
45 2 0.005 0.130001 0.164483 0 0 0 0 0 0
29 2 0.005 0.161156 0.16663 0 0 0 0 0 0
33 2 0.005 0.2083 0.169415 0 0 0 0 0 0
6 1 0.005 -0.175535 0.176556 0 0 0 0 0 0
36 2 0.005 -0.0593861 0.175934 0 0 0 0 0 0
43 2 0.005 -0.0302944 0.185961 0 0 0 0 0 0
40 2 0.005 0.116131 0.183911 0 0 0 0 0 0
42 2 0.005 0.0796987 0.190451 0 0 0 0 0 0
26 2 0.005 0.162183 0.207905 0 0 0 0 0 0
4 1 0.005 0.248446 0.208134 0 0 0 0 0 0
17 1 0.005 0.0662828 0.213204 0 0 0 0 0 0
15 1 0.005 -0.0514068 0.216998 0 0 0 0 0 0
8 1 0.005 -0.0393153 0.224151 0 0 0 0 0 0
10 1 0.005 -0.0172369 0.229836 0 0 0 0 0 0
