ITEM: TIMESTEP
700000
ITEM: NUMBER OF ATOMS
48
ITEM: BOX BOUNDS pp pp ff
-2.5000000000000000e-01 2.5000000000000000e-01
-2.5000000000000000e-01 2.5000000000000000e-01
-1.0000000000000001e-01 1.0000000000000001e-01
ITEM: ATOMS id type radius x y z fx fy fz c_bendingE c_stretchingE
6 1 0.005 0.109519 -0.238241 0 0 0 0 0 0
3 1 0.005 0.0222614 -0.223562 0 0 0 0 0 0
17 1 0.005 0.190689 -0.21198 0 0 0 0 0 0
5 1 0.005 -0.138823 -0.210819 0 0 0 0 0 0
15 1 0.005 -0.118813 -0.197587 0 0 0 0 0 0
16 1 0.005 -0.0023149 -0.194832 0 0 0 0 0 0
46 2 0.005 0.178 -0.196343 0 0 0 0 0 0
7 1 0.005 -0.248683 -0.190948 0 0 0 0 0 0
34 2 0.005 0.154699 -0.186959 0 0 0 0 0 0
41 2 0.005 -0.133082 -0.177238 0 0 0 0 0 0
19 1 0.005 0.0239502 -0.170345 0 0 0 0 0 0
20 1 0.005 -0.103398 -0.162347 0 0 0 0 0 0
44 2 0.005 -0.247094 -0.123283 0 0 0 0 0 0
11 1 0.005 0.119019 -0.116101 0 0 0 0 0 0
21 1 0.005 -0.0899217 -0.110962 0 0 0 0 0 0
23 1 0.005 -0.0294741 -0.110911 0 0 0 0 0 0
48 2 0.005 -0.210243 -0.08479 0 0 0 0 0 0
35 2 0.005 0.0353436 -0.0792826 0 0 0 0 0 0
9 1 0.005 -0.185941 -0.0775804 0 0 0 0 0 0
27 2 0.005 -0.101997 -0.0650911 0 0 0 0 0 0
4 1 0.005 0.0583277 -0.0416738 0 0 0 0 0 0
47 2 0.005 -0.0640172 -0.0344667 0 0 0 0 0 0
31 2 0.005 0.145587 -0.00412185 0 0 0 0 0 0
39 2 0.005 -0.15807 0.00199447 0 0 0 0 0 0
38 2 0.005 -0.223302 0.00909641 0 0 0 0 0 0
18 1 0.005 -0.136005 0.0151842 0 0 0 0 0 0
14 1 0.005 -0.087969 0.0133024 0 0 0 0 0 0
30 2 0.005 0.124965 0.0426083 0 0 0 0 0 0
22 1 0.005 0.0999202 0.0654428 0 0 0 0 0 0
32 2 0.005 0.226493 0.0721681 0 0 0 0 0 0
25 2 0.005 -0.105136 0.0817482 0 0 0 0 0 0
37 2 0.005 -0.192547 0.0865099 0 0 0 0 0 0
2 1 0.005 -0.019163 0.0936873 0 -3.7024e-14 -3.7024e-14 0 0 0
28 2 0.005 0.0699789 0.115507 0 0 0 0 0 0
1 1 0.005 0.00208826 0.118209 0 3.7024e-14 3.7024e-14 0 0 0
24 2 0.005 0.106817 0.116898 0 0 0 0 0 0
45 2 0.005 0.130001 0.164483 0 0 0 0 0 0
29 2 0.005 0.161156 0.16663 0 0 0 0 0 0
10 1 0.005 -0.196906 0.170081 0 0 0 0 0 0
33 2 0.005 0.2083 0.169415 0 0 0 0 0 0
36 2 0.005 -0.0593861 0.175934 0 0 0 0 0 0
43 2 0.005 -0.0302944 0.185961 0 0 0 0 0 0
40 2 0.005 0.116131 0.183911 0 0 0 0 0 0
42 2 0.005 0.0796987 0.190451 0 0 0 0 0 0
26 2 0.005 0.162183 0.207905 0 0 0 0 0 0
8 1 0.005 0.0129087 0.231298 0 0 0 0 0 0
12 1 0.005 0.20552 0.230342 0 0 0 0 0 0
13 1 0.005 0.120895 0.23811 0 0 0 0 0 0
