ITEM: TIMESTEP
1200000
ITEM: NUMBER OF ATOMS
56
ITEM: BOX BOUNDS pp pp ff
-2.5000000000000000e-01 2.5000000000000000e-01
-2.5000000000000000e-01 2.5000000000000000e-01
-1.0000000000000001e-01 1.0000000000000001e-01
ITEM: ATOMS id type radius x y z fx fy fz c_bendingE c_stretchingE
17 1 0.05 -0.122099 -0.227475 0 -1002.76 -2428.61 0 0 0
33 2 0.05 -0.0917627 -0.196387 0 -304.175 -2051.2 0 0 0
24 1 0.05 -0.110294 -0.199116 0 770.823 1414.55 0 0 0
54 2 0.05 0.0522899 -0.209585 0 -1276.49 332.821 0 0 0
53 2 0.05 0.116679 -0.21488 0 -339.253 -168.056 0 0 0
22 1 0.05 0.105874 -0.246346 0 -893.56 944.724 0 0 0
29 2 0.05 -0.211852 -0.18757 0 -158.582 411.18 0 0 0
38 2 0.05 -0.135697 -0.147764 0 -1295.96 872.601 0 0 0
52 2 0.05 -0.0714976 -0.158547 0 1294.76 885.217 0 0 0
9 1 0.05 0.0211167 -0.142624 0 -685.139 -447.996 0 0 0
6 1 0.05 0.091095 -0.148006 0 721.15 -53.6643 0 0 0
42 2 0.05 0.143173 -0.187128 0 1707.96 1648.63 0 0 0
10 1 0.05 -0.182045 -0.10106 0 -202.111 -138.887 0 0 0
2 1 0.05 -0.0963281 -0.137052 0 318.022 419.105 0 0 0
47 2 0.05 -0.0298504 -0.105656 0 -1606.56 -178.484 0 0 0
56 2 0.05 0.0101624 -0.0923875 0 876.563 -921.77 0 0 0
45 2 0.05 0.105006 -0.106033 0 32.8037 16.3424 0 0 0
35 2 0.05 0.197417 -0.0966816 0 83.955 8.49533 0 0 0
30 2 0.05 -0.140565 -0.0532528 0 -336.185 -239.066 0 0 0
4 1 0.05 -0.0976096 -0.0622841 0 70.4324 -385.667 0 0 0
15 1 0.05 -0.0350766 -0.0359881 0 -536.835 899.9 0 0 0
12 1 0.05 0.0156145 -0.0662748 0 -256.146 -1340.52 0 0 0
11 1 0.05 0.0488476 -0.0325312 0 -253.863 -654.249 0 0 0
50 2 0.05 0.0336688 -0.0538848 0 1066.46 1783.32 0 0 0
13 1 0.05 -0.156728 -0.00312095 0 -1522.24 3435.74 0 0 0
25 1 0.05 -0.151344 -0.016667 0 802.402 -2663.61 0 0 0
46 2 0.05 -0.0817472 -0.00134056 0 38.56 -348.041 0 0 0
19 1 0.05 0.0735585 0.00923619 0 -1515.52 2346.01 0 0 0
43 2 0.05 0.102554 0.0197559 0 519.912 -299.759 0 0 0
3 1 0.05 0.104657 -0.00362465 0 2146.55 -863.674 0 0 0
5 1 0.05 0.161775 0.0211712 0 -123.397 1216.56 0 0 0
20 1 0.05 0.20151 -0.0107784 0 1210.21 -957.253 0 0 0
39 2 0.05 -0.185964 0.0761237 0 14.5343 -1001.5 0 0 0
8 1 0.05 -0.110709 0.0809433 0 -234.315 -786.545 0 0 0
27 2 0.05 -0.0512883 0.0627543 0 516.207 126.326 0 0 0
37 2 0.05 0.0262721 0.079119 0 176.891 2154.04 0 0 0
55 2 0.05 0.0303967 0.0392564 0 -86.9026 -1896.2 0 0 0
32 2 0.05 -0.224668 0.134235 0 -1570.95 72.7171 0 0 0
49 2 0.05 -0.106324 0.0933056 0 -478.242 522.184 0 0 0
14 1 0.05 -0.0373652 0.0993611 0 356.545 -231.129 0 0 0
48 2 0.05 0.131377 0.104868 0 -1181.13 -2567.3 0 0 0
40 2 0.05 0.1425 0.1302 0 390.917 1557.49 0 0 0
26 1 0.05 0.181922 0.107246 0 -116.477 -16.1675 0 0 0
44 2 0.05 -0.173578 0.157991 0 1219.67 793.555 0 0 0
16 1 0.05 -0.1567 0.143063 0 -1475.17 -117.282 0 0 0
21 1 0.05 -0.105285 0.16406 0 1190 848.308 0 0 0
7 1 0.05 0.0077305 0.166198 0 184.715 315.366 0 0 0
23 1 0.05 0.104282 0.161855 0 -528.138 -692.398 0 0 0
28 2 0.05 0.177654 0.177147 0 621.206 736.72 0 0 0
18 1 0.05 0.248544 0.160339 0 167.202 163.496 0 0 0
34 2 0.05 -0.218521 0.23649 0 1630.62 -100.766 0 0 0
51 2 0.05 -0.0911071 0.220394 0 -92.2839 -284.001 0 0 0
36 2 0.05 -0.00120266 0.200015 0 94.6904 -21.464 0 0 0
41 2 0.05 0.109199 0.233694 0 -157.601 -1841.5 0 0 0
1 1 0.05 0.147787 0.21423 0 1407.61 -226.114 0 0 0
31 2 0.05 0.236192 0.228725 0 -1401.38 -2.5266 0 0 0
