ITEM: TIMESTEP
1400000
ITEM: NUMBER OF ATOMS
56
ITEM: BOX BOUNDS pp pp ff
-2.5000000000000000e-01 2.5000000000000000e-01
-2.5000000000000000e-01 2.5000000000000000e-01
-1.0000000000000001e-01 1.0000000000000001e-01
ITEM: ATOMS id type radius x y z fx fy fz c_bendingE c_stretchingE
53 2 0.05 -0.198597 -0.236539 0 -955.181 1786.46 0 0 0
5 1 0.05 -0.185867 -0.225873 0 427.641 -3129.54 0 0 0
7 1 0.05 -0.187625 -0.205456 0 -577.117 3153.51 0 0 0
54 2 0.05 0.0519347 -0.216789 0 145.435 -276.898 0 0 0
42 2 0.05 0.187713 -0.201989 0 -514.422 -1447.1 0 0 0
10 1 0.05 0.217576 -0.24255 0 -2526.43 -214.849 0 0 0
26 1 0.05 0.248974 -0.249468 0 1439.33 -1467.52 0 0 0
36 2 0.05 -0.147123 -0.188438 0 531.31 510.28 0 0 0
21 1 0.05 -0.121666 -0.190658 0 1339.72 475.579 0 0 0
35 2 0.05 0.0133612 -0.143348 0 -145.435 276.898 0 0 0
3 1 0.05 0.0501876 -0.164705 0 -580.31 -1229.35 0 0 0
47 2 0.05 0.162496 -0.140454 0 -2293.36 149.881 0 0 0
50 2 0.05 0.206802 -0.15753 0 1833.02 -217.677 0 0 0
18 1 0.05 0.225711 -0.173628 0 -152.616 1142.87 0 0 0
23 1 0.05 -0.199419 -0.111239 0 2021.46 -1598.69 0 0 0
20 1 0.05 -0.22247 -0.0922358 0 -1998.17 1684.91 0 0 0
51 2 0.05 -0.086505 -0.094199 0 -27.0321 -23.901 0 0 0
11 1 0.05 -0.0402784 -0.107685 0 0 0 0 0 0
4 1 0.05 0.0734963 -0.115327 0 580.31 1229.35 0 0 0
41 2 0.05 0.235378 -0.102976 0 1257.23 815.464 0 0 0
33 2 0.05 -0.183026 -0.069136 0 170.44 -85.051 0 0 0
56 2 0.05 -0.0137033 -0.0317243 0 -307.455 -48.4526 0 0 0
30 2 0.05 0.167172 -0.0801323 0 -873.756 798.341 0 0 0
9 1 0.05 0.165681 -0.0595561 0 224.156 -1147.3 0 0 0
13 1 0.05 -0.17221 0.0205139 0 -52.3096 -152.923 0 0 0
28 2 0.05 -0.187349 0.0202271 0 2204.22 -2756.29 0 0 0
8 1 0.05 -0.0588781 0.0171706 0 -2.92415 -42.9778 0 0 0
37 2 0.05 0.0663408 -0.0144813 0 278.441 -1129.7 0 0 0
2 1 0.05 0.154378 -0.00170141 0 -580.797 68.5283 0 0 0
46 2 0.05 0.189603 -0.0140178 0 334.331 593.685 0 0 0
31 2 0.05 -0.194899 0.0297082 0 -2296 2823.95 0 0 0
45 2 0.05 -0.108694 0.0698947 0 -491.763 -263.437 0 0 0
24 1 0.05 0.0497715 0.0702441 0 -1499.69 1899.82 0 0 0
1 1 0.05 0.0629683 0.042807 0 1065.32 -2440.85 0 0 0
29 2 0.05 0.0646098 0.0458872 0 -990.047 1012.9 0 0 0
43 2 0.05 0.128192 0.051631 0 941.992 243.436 0 0 0
6 1 0.05 0.173123 0.0550003 0 -52.2116 481.369 0 0 0
16 1 0.05 -0.17433 0.133619 0 -1843.6 634.77 0 0 0
19 1 0.05 -0.143397 0.104746 0 1352.53 -1393.54 0 0 0
40 2 0.05 -0.0461028 0.103798 0 -86.2549 17.2276 0 0 0
15 1 0.05 -0.0523985 0.112405 0 133.355 -120.525 0 0 0
34 2 0.05 0.0171626 0.132148 0 -111.2 -1742.29 0 0 0
25 1 0.05 0.0997201 0.125593 0 -32.6626 392.832 0 0 0
22 1 0.05 0.216902 0.111769 0 1351.62 -269.059 0 0 0
38 2 0.05 0.228325 0.0873311 0 86.8626 -405.613 0 0 0
49 2 0.05 -0.223979 0.191135 0 -357.658 -1242.94 0 0 0
12 1 0.05 -0.139206 0.191639 0 17.9643 806.446 0 0 0
32 2 0.05 0.030612 0.166927 0 797.851 2060.04 0 0 0
48 2 0.05 0.152902 0.14378 0 -35.1368 -2342.03 0 0 0
14 1 0.05 0.173121 0.148884 0 -475.735 1014.65 0 0 0
52 2 0.05 0.139816 0.177262 0 -1559.34 2004.44 0 0 0
55 2 0.05 0.215009 0.166288 0 606.253 -486.338 0 0 0
27 2 0.05 -0.18492 0.222387 0 1815.91 -842.557 0 0 0
44 2 0.05 -0.0855356 0.232652 0 0.112904 0.0116619 0 0 0
17 1 0.05 -0.0611378 0.200447 0 421.157 222.489 0 0 0
39 2 0.05 0.201918 0.233674 0 40.6304 217.262 0 0 0
