ITEM: TIMESTEP
0
ITEM: NUMBER OF ATOMS
56
ITEM: BOX BOUNDS pp pp ff
-2.5000000000000000e-01 2.5000000000000000e-01
-2.5000000000000000e-01 2.5000000000000000e-01
-1.0000000000000001e-01 1.0000000000000001e-01
ITEM: ATOMS id type radius x y z fx fy fz c_bendingE c_stretchingE
33 2 0.05 -0.217209 -0.201951 0 4996.16 3716.09 0 0 0
38 2 0.05 -0.238642 -0.241381 0 2110.22 -1846.11 0 0 0
44 2 0.05 -0.249048 -0.219428 0 -1232.27 1751.75 0 0 0
4 1 0.05 0.0354781 -0.206547 0 1123.32 -1259.15 0 0 0
15 1 0.05 0.153578 -0.207043 0 704.896 -828.351 0 0 0
53 2 0.05 0.152127 -0.223583 0 -2047.5 -316.292 0 0 0
50 2 0.05 0.195498 -0.217873 0 -2323.75 -194.932 0 0 0
8 1 0.05 -0.155468 -0.170299 0 -507.781 -2968.97 0 0 0
23 1 0.05 -0.151617 -0.147782 0 507.781 2968.97 0 0 0
14 1 0.05 0.00489268 -0.168991 0 -2181.31 -698.503 0 0 0
27 2 0.05 -0.000735206 -0.142044 0 259.835 -2569.26 0 0 0
25 1 0.05 0.0368069 -0.157371 0 2598.83 1956.03 0 0 0
55 2 0.05 0.0490198 -0.144975 0 2641.15 -1261.31 0 0 0
5 1 0.05 0.114126 -0.160682 0 -124.62 867.912 0 0 0
46 2 0.05 0.23366 -0.191851 0 -2183.33 5388.9 0 0 0
26 1 0.05 -0.0249184 -0.13427 0 -2028.32 1699.63 0 0 0
30 2 0.05 0.0237659 -0.0908861 0 965.223 2883.82 0 0 0
34 2 0.05 -0.0226898 -0.12803 0 -3861.78 942.946 0 0 0
41 2 0.05 -0.216766 -0.0531747 0 555.597 -2167.59 0 0 0
51 2 0.05 -0.233404 -0.0300286 0 -1777.9 2249.92 0 0 0
54 2 0.05 -0.151455 -0.0587277 0 642.867 -1645.4 0 0 0
2 1 0.05 -0.0944627 -0.0632126 0 556.73 -3344.75 0 0 0
12 1 0.05 -0.10162 -0.0284192 0 1362.88 -3550.61 0 0 0
22 1 0.05 0.0520886 -0.0724153 0 -1920.25 -696.362 0 0 0
24 1 0.05 0.0903289 -0.0579859 0 2001.81 -96.3342 0 0 0
42 2 0.05 0.117292 -0.0392873 0 -289.073 -1680.74 0 0 0
17 1 0.05 0.227517 -0.0387601 0 0 0 0 0 0
16 1 0.05 -0.1763 -0.00310426 0 -5011.09 -2390.98 0 0 0
6 1 0.05 -0.126306 0.0217824 0 500.937 -4430.67 0 0 0
7 1 0.05 -0.120452 0.00445286 0 1616.04 -7063.38 0 0 0
45 2 0.05 -0.136952 -0.0107598 0 378.678 1600.06 0 0 0
21 1 0.05 -0.0599874 0.00832401 0 4535.82 516.868 0 0 0
32 2 0.05 -0.0512203 -0.026554 0 196.323 -33.1829 0 0 0
20 1 0.05 0.0811228 0.00904653 0 -37.0388 1017.82 0 0 0
40 2 0.05 0.125292 0.0072246 0 331.078 1645.63 0 0 0
1 1 0.05 -0.131192 0.0356439 0 -4918.33 7429.63 0 0 0
11 1 0.05 -0.128034 0.030221 0 -17.7482 1749.89 0 0 0
18 1 0.05 -0.12445 0.0542217 0 1538 9925.93 0 0 0
35 2 0.05 0.0291752 0.0344964 0 -1124.14 -1955.43 0 0 0
39 2 0.05 0.0527088 0.0680092 0 2029.9 -175.195 0 0 0
19 1 0.05 -0.201226 0.0932369 0 -407.099 176.215 0 0 0
56 2 0.05 -0.232251 0.126548 0 -71.4903 -70.9254 0 0 0
3 1 0.05 -0.113421 0.122998 0 371.38 328.813 0 0 0
37 2 0.05 -0.0893579 0.118524 0 -1724.43 -1821.08 0 0 0
48 2 0.05 0.0137753 0.119638 0 -4173.62 -2048.48 0 0 0
31 2 0.05 0.0335469 0.127032 0 2631.44 -825.277 0 0 0
52 2 0.05 0.146855 0.122052 0 0 0 0 0 0
43 2 0.05 -0.166945 0.191338 0 -377.709 -1459.53 0 0 0
13 1 0.05 -0.127285 0.193405 0 -128.87 654.434 0 0 0
36 2 0.05 -0.0675529 0.141551 0 1455.65 1893.5 0 0 0
47 2 0.05 0.0319878 0.156077 0 88.3571 3421.75 0 0 0
9 1 0.05 0.163119 0.190974 0 0 0 0 0 0
28 2 0.05 -0.240188 0.248074 0 247.621 -8301.03 0 0 0
49 2 0.05 -0.150013 0.238618 0 882.046 1332.09 0 0 0
10 1 0.05 0.0304088 0.247331 0 -135.962 -1964.08 0 0 0
29 2 0.05 0.0586428 0.204331 0 774.839 1545.33 0 0 0
