ITEM: TIMESTEP
20
ITEM: NUMBER OF ATOMS
50
ITEM: BOX BOUNDS pp pp ff
-2.5000000000000000e-01 2.5000000000000000e-01
-2.5000000000000000e-01 2.5000000000000000e-01
-1.0000000000000001e-01 1.0000000000000001e-01
ITEM: ATOMS id type radius x y z fx fy fz c_bendingE c_stretchingE
5 1 0.005 -0.0203631 -0.245742 0 0 0 0 0 0
49 2 0.005 0.243026 -0.245105 0 0 0 0 0 0
43 2 0.005 0.108891 -0.222886 0 0 0 0 0 0
24 1 0.005 -0.0515624 -0.208677 0 0 0 0 0 0
23 1 0.005 -0.205424 -0.149759 0 0 0 0 0 0
33 2 0.005 -0.0700858 -0.145616 0 0 0 0 0 0
19 1 0.005 -0.0204798 -0.144287 0 0 0 0 0 0
21 1 0.005 -0.0534345 -0.137757 0 0 0 0 0 0
6 1 0.005 -0.214879 -0.133086 0 0 0 0 0 0
17 1 0.005 -0.216541 -0.122534 0 0 0 0 0 0
27 1 0.005 0.0473566 -0.122311 0 0 0 0 0 0
16 1 0.005 -0.200701 -0.111359 0 0 0 0 0 0
28 1 0.005 0.202745 -0.0929752 0 0 0 0 0 0
47 2 0.005 0.0850589 -0.076371 0 0 0 0 0 0
48 2 0.005 0.202631 -0.0731649 0 0 0 0 0 0
2 1 0.005 0.111435 -0.0564547 0 -3.7024e-14 -3.7024e-14 0 0 0
38 2 0.005 0.017032 -0.048606 0 0 0 0 0 0
45 2 0.005 0.138684 -0.0228864 0 0 0 0 0 0
9 1 0.005 0.244156 0.000263229 0 0 0 0 0 0
29 2 0.005 -0.0552682 0.00913406 0 0 0 0 0 0
40 2 0.005 -0.0676096 0.0187437 0 0 0 0 0 0
11 1 0.005 -0.0641895 0.0299268 0 0 0 0 0 0
15 1 0.005 0.141969 0.0401886 0 0 0 0 0 0
39 2 0.005 0.211578 0.0555628 0 0 0 0 0 0
10 1 0.005 -0.0723077 0.0936398 0 0 0 0 0 0
37 2 0.005 -0.221738 0.0969455 0 0 0 0 0 0
3 1 0.005 -0.160673 0.0975511 0 0 0 0 0 0
4 1 0.005 -0.245752 0.102619 0 0 0 0 0 0
1 1 0.005 0.0257731 0.110617 0 3.7024e-14 3.7024e-14 0 0 0
41 2 0.005 -0.0112928 0.115382 0 0 0 0 0 0
44 2 0.005 0.183223 0.112704 0 0 0 0 0 0
50 2 0.005 -0.00495579 0.125043 0 0 0 0 0 0
36 2 0.005 -0.24873 0.132027 0 0 0 0 0 0
8 1 0.005 -0.0141393 0.128771 0 0 0 0 0 0
46 2 0.005 0.222937 0.128987 0 0 0 0 0 0
30 2 0.005 0.217701 0.154104 0 0 0 0 0 0
12 1 0.005 0.21113 0.165483 0 0 0 0 0 0
32 2 0.005 -0.0801467 0.173803 0 0 0 0 0 0
26 1 0.005 0.0611889 0.172548 0 0 0 0 0 0
31 2 0.005 0.233257 0.177733 0 0 0 0 0 0
42 2 0.005 0.203097 0.182203 0 0 0 0 0 0
7 1 0.005 0.232627 0.182644 0 0 0 0 0 0
18 1 0.005 0.147056 0.199018 0 0 0 0 0 0
20 1 0.005 -0.17051 0.205834 0 0 0 0 0 0
34 2 0.005 0.117896 0.210083 0 0 0 0 0 0
25 1 0.005 0.122198 0.228542 0 0 0 0 0 0
14 1 0.005 -0.130547 0.239707 0 0 0 0 0 0
22 1 0.005 0.0448387 0.243768 0 0 0 0 0 0
35 2 0.005 0.0781437 0.242325 0 0 0 0 0 0
13 1 0.005 0.178811 0.240667 0 0 0 0 0 0
