ITEM: TIMESTEP
1100000
ITEM: NUMBER OF ATOMS
56
ITEM: BOX BOUNDS pp pp ff
-2.5000000000000000e-01 2.5000000000000000e-01
-2.5000000000000000e-01 2.5000000000000000e-01
-1.0000000000000001e-01 1.0000000000000001e-01
ITEM: ATOMS id type radius x y z fx fy fz c_bendingE c_stretchingE
44 2 0.05 -0.228924 -0.228899 0 -804.092 262.442 0 0 0
38 2 0.05 -0.176078 -0.241772 0 1147.59 -25.2496 0 0 0
32 2 0.05 -0.0399373 -0.246486 0 -1117.04 -1729.39 0 0 0
37 2 0.05 -0.0381943 -0.201427 0 -936.232 1576.94 0 0 0
55 2 0.05 0.13423 -0.219033 0 -236.49 25.2123 0 0 0
45 2 0.05 -0.144099 -0.155715 0 -255.33 -1148.47 0 0 0
14 1 0.05 -0.0811107 -0.173332 0 612.666 -829.749 0 0 0
29 2 0.05 0.0139013 -0.158979 0 161.378 198.214 0 0 0
19 1 0.05 0.0359023 -0.144144 0 0 0 0 0 0
50 2 0.05 0.21177 -0.173246 0 103.914 100.068 0 0 0
11 1 0.05 0.206484 -0.172114 0 1095.68 -1315.65 0 0 0
12 1 0.05 -0.209684 -0.127615 0 208.674 -931.493 0 0 0
15 1 0.05 -0.117721 -0.123215 0 273.149 -1198.83 0 0 0
56 2 0.05 -0.119554 -0.0993095 0 1039.26 637.899 0 0 0
30 2 0.05 -0.0379111 -0.0870824 0 61.5265 -796.627 0 0 0
46 2 0.05 0.0789135 -0.127065 0 -93.6423 204.767 0 0 0
54 2 0.05 0.14993 -0.118724 0 426.168 295.087 0 0 0
26 1 0.05 0.175497 -0.137019 0 -1140.9 1292.12 0 0 0
22 1 0.05 -0.239761 -0.0708776 0 -353.188 652.951 0 0 0
47 2 0.05 -0.180284 -0.0806845 0 -999.509 303.166 0 0 0
7 1 0.05 -0.135346 -0.0828271 0 -1280.08 -535.545 0 0 0
1 1 0.05 -0.130598 -0.0417186 0 -1689.91 1529.87 0 0 0
5 1 0.05 -0.0482545 -0.0503534 0 2554.13 -1178.67 0 0 0
6 1 0.05 -0.0769118 -0.0347798 0 -36.8991 1086.82 0 0 0
39 2 0.05 -0.20206 0.00116395 0 -393.769 120.296 0 0 0
18 1 0.05 -0.11042 0.0274975 0 -254.752 988.075 0 0 0
41 2 0.05 -0.0695036 -0.000479435 0 -1296.88 -537.349 0 0 0
35 2 0.05 -0.024167 -0.0233447 0 1610.53 -486.602 0 0 0
34 2 0.05 0.121643 0.026843 0 -294.391 176.966 0 0 0
40 2 0.05 0.190942 -0.0148829 0 318.04 -191.495 0 0 0
10 1 0.05 0.232613 0.0148356 0 2105.37 -391.296 0 0 0
21 1 0.05 0.197562 -0.00152475 0 -2142.1 -1307.21 0 0 0
33 2 0.05 -0.126892 0.0327284 0 -698.424 292.478 0 0 0
43 2 0.05 -0.0290998 0.0476296 0 857.05 441.966 0 0 0
31 2 0.05 0.039328 0.0774146 0 402.047 176.987 0 0 0
13 1 0.05 0.222736 0.0713801 0 -777.229 -721.623 0 0 0
27 2 0.05 -0.204299 0.101002 0 451.691 87.2125 0 0 0
16 1 0.05 -0.175799 0.122269 0 41.1446 14.7405 0 0 0
36 2 0.05 -0.071347 0.0908589 0 -923.557 39.8774 0 0 0
2 1 0.05 -0.0794115 0.105681 0 60.6537 184.025 0 0 0
23 1 0.05 0.0235076 0.11253 0 205.162 -291.922 0 0 0
48 2 0.05 0.114956 0.1285 0 -128.083 -43.5355 0 0 0
25 1 0.05 0.231907 0.101792 0 666.179 2595.43 0 0 0
28 2 0.05 0.219162 0.086233 0 -359.048 -357.062 0 0 0
51 2 0.05 -0.148692 0.183945 0 146.286 -396.248 0 0 0
49 2 0.05 -0.0515967 0.145249 0 414.899 1142.58 0 0 0
17 1 0.05 -0.0234259 0.179085 0 -1092.52 -1599.07 0 0 0
4 1 0.05 0.131578 0.171463 0 159.789 -420.773 0 0 0
52 2 0.05 0.191865 0.165637 0 -89.5546 -750.38 0 0 0
20 1 0.05 -0.139125 0.231475 0 -1258.07 71.4317 0 0 0
9 1 0.05 -0.0823744 0.228253 0 637.473 292.211 0 0 0
53 2 0.05 0.0216776 0.248953 0 1413.87 -467.802 0 0 0
24 1 0.05 0.00109368 0.209487 0 1565.24 1593.8 0 0 0
3 1 0.05 0.103789 0.244638 0 -159.789 420.773 0 0 0
42 2 0.05 0.203234 0.22395 0 71.7989 848.043 0 0 0
8 1 0.05 0.240003 0.233891 0 0.141337 -0.396353 0 0 0
