ITEM: TIMESTEP
1900000
ITEM: NUMBER OF ATOMS
56
ITEM: BOX BOUNDS pp pp ff
-2.5000000000000000e-01 2.5000000000000000e-01
-2.5000000000000000e-01 2.5000000000000000e-01
-1.0000000000000001e-01 1.0000000000000001e-01
ITEM: ATOMS id type radius x y z fx fy fz c_bendingE c_stretchingE
23 1 0.05 0.0121239 -0.224845 0 -945.132 -1592.71 0 0 0
43 2 0.05 -0.0191129 -0.216332 0 -10.761 -7.85993 0 0 0
17 1 0.05 0.0399602 -0.212386 0 2456.76 -710.583 0 0 0
19 1 0.05 0.176795 -0.241318 0 1109.11 853.937 0 0 0
56 2 0.05 0.247543 -0.245828 0 115.798 2634.67 0 0 0
40 2 0.05 0.20842 -0.196859 0 -622.076 1223.64 0 0 0
10 1 0.05 -0.206198 -0.167608 0 -1778.91 129.155 0 0 0
37 2 0.05 -0.179055 -0.149197 0 -322.387 -521.348 0 0 0
26 1 0.05 -0.160725 -0.17091 0 831.723 -737.846 0 0 0
22 1 0.05 -0.0514657 -0.185192 0 -794.709 283.64 0 0 0
14 1 0.05 0.0219167 -0.170888 0 -885.456 2591.14 0 0 0
41 2 0.05 0.0615402 -0.160775 0 -2152.35 -466.403 0 0 0
6 1 0.05 0.109187 -0.162925 0 1495.24 1669.82 0 0 0
53 2 0.05 0.104388 -0.167795 0 1126.59 -1542.09 0 0 0
11 1 0.05 0.110126 -0.191829 0 845.769 -2175.86 0 0 0
4 1 0.05 -0.110279 -0.138492 0 541.479 570.092 0 0 0
31 2 0.05 -0.125118 -0.0958631 0 112.78 -70.1247 0 0 0
35 2 0.05 -0.0420563 -0.119205 0 2000.4 756.141 0 0 0
28 2 0.05 -0.0802746 -0.136714 0 -971.083 -1555.2 0 0 0
21 1 0.05 0.0748797 -0.12911 0 -707.657 2271.74 0 0 0
54 2 0.05 0.0811036 -0.0951834 0 -768.561 729.108 0 0 0
32 2 0.05 0.149734 -0.130062 0 922.78 -506.647 0 0 0
39 2 0.05 0.238139 -0.104325 0 352.511 -87.7006 0 0 0
13 1 0.05 -0.18306 -0.0392346 0 420.425 -972.545 0 0 0
45 2 0.05 -0.17833 -0.0582335 0 -1623.99 81.6791 0 0 0
18 1 0.05 -0.115909 -0.058197 0 1039.61 -1314.96 0 0 0
7 1 0.05 0.0131209 -0.0637141 0 -632.876 -220.897 0 0 0
5 1 0.05 0.187929 -0.0726758 0 0 0 0 0 0
55 2 0.05 0.163566 -0.0731376 0 470.513 1149.83 0 0 0
3 1 0.05 -0.219868 -0.0264265 0 -2067.19 683.805 0 0 0
48 2 0.05 -0.127104 -0.0254263 0 897.371 1300.69 0 0 0
15 1 0.05 -0.127638 -0.00886219 0 580.373 1985.71 0 0 0
49 2 0.05 -0.0124856 0.0208412 0 -547.566 -1440.77 0 0 0
9 1 0.05 0.0755304 -0.0259786 0 372.376 210.705 0 0 0
42 2 0.05 0.0973966 -0.0260165 0 -695.139 -218.268 0 0 0
38 2 0.05 0.123397 0.0251684 0 440.885 973.289 0 0 0
8 1 0.05 0.147367 0.0238145 0 163.257 113.161 0 0 0
30 2 0.05 -0.0777652 0.0767014 0 -308.698 125.949 0 0 0
25 1 0.05 -0.0456321 0.0695793 0 0 0 0 0 0
46 2 0.05 0.0130418 0.06613 0 988.587 566.299 0 0 0
33 2 0.05 -0.197871 0.10979 0 -40.9907 -932.755 0 0 0
36 2 0.05 -0.00163076 0.134727 0 -120.382 732.651 0 0 0
1 1 0.05 0.108453 0.123003 0 -58.2274 -60.9248 0 0 0
34 2 0.05 0.127956 0.125844 0 -739.102 476.151 0 0 0
51 2 0.05 0.183481 0.0900733 0 857.675 -348.065 0 0 0
24 1 0.05 0.235936 0.0939557 0 0 0 0 0 0
44 2 0.05 -0.234059 0.1696 0 -58.8443 -673.217 0 0 0
47 2 0.05 -0.136261 0.154438 0 364.106 130.054 0 0 0
2 1 0.05 0.172632 0.190155 0 405.598 -1037.73 0 0 0
50 2 0.05 -0.240208 0.233871 0 2638.87 -1602.63 0 0 0
20 1 0.05 -0.201451 0.204923 0 0 0 0 0 0
52 2 0.05 -0.114251 0.239126 0 49.3993 190.07 0 0 0
12 1 0.05 -0.0242593 0.241612 0 -1364.41 -1762.28 0 0 0
29 2 0.05 0.0652177 0.214061 0 0 0 0 0 0
16 1 0.05 0.113258 0.238304 0 -1027.15 -776.551 0 0 0
27 2 0.05 0.199574 0.223559 0 -2356.33 -1097.13 0 0 0
