ITEM: TIMESTEP
600000
ITEM: NUMBER OF ATOMS
56
ITEM: BOX BOUNDS pp pp ff
-2.5000000000000000e-01 2.5000000000000000e-01
-2.5000000000000000e-01 2.5000000000000000e-01
-1.0000000000000001e-01 1.0000000000000001e-01
ITEM: ATOMS id type radius x y z fx fy fz c_bendingE c_stretchingE
54 2 0.05 -0.101687 -0.211712 0 1614.7 65.597 0 0 0
16 1 0.05 0.119212 -0.232734 0 -11.8768 -20.9372 0 0 0
37 2 0.05 0.189404 -0.227881 0 -12.0228 -187.089 0 0 0
11 1 0.05 -0.144004 -0.178024 0 109.391 -1796.68 0 0 0
55 2 0.05 -0.164862 -0.18733 0 -1644.33 -177.553 0 0 0
33 2 0.05 -0.129478 -0.140753 0 -114.457 412.36 0 0 0
26 1 0.05 -0.0579034 -0.181018 0 175.316 112.38 0 0 0
39 2 0.05 0.0293646 -0.18128 0 -75.8653 -383.833 0 0 0
18 1 0.05 0.16703 -0.148436 0 -280.951 -660.584 0 0 0
41 2 0.05 0.230441 -0.15852 0 -274.642 -399.502 0 0 0
31 2 0.05 -0.23251 -0.103476 0 763.425 -64.3296 0 0 0
23 1 0.05 -0.153066 -0.133018 0 -976.194 436.19 0 0 0
25 1 0.05 -0.130078 -0.0854755 0 229.942 663.036 0 0 0
40 2 0.05 -0.0952196 -0.0925785 0 840.607 615.756 0 0 0
56 2 0.05 0.0611849 -0.0998627 0 2256.74 -225.188 0 0 0
47 2 0.05 0.0309607 -0.0939066 0 -2192.24 402.293 0 0 0
32 2 0.05 0.140656 -0.120528 0 309.104 -77.7261 0 0 0
7 1 0.05 0.19454 -0.0844098 0 -1213.91 -1943.98 0 0 0
51 2 0.05 -0.165474 -0.054417 0 -36.3402 283.25 0 0 0
44 2 0.05 -0.0269368 -0.0401884 0 -130.568 430.477 0 0 0
5 1 0.05 -0.0193915 -0.053424 0 341.055 -118.047 0 0 0
1 1 0.05 0.109698 -0.0323532 0 -416.946 -804.535 0 0 0
13 1 0.05 0.213818 -0.0575362 0 1786.64 230.685 0 0 0
43 2 0.05 0.222507 -0.0523447 0 173.628 -330.039 0 0 0
48 2 0.05 -0.209728 0.0220958 0 3259.89 -1359.39 0 0 0
45 2 0.05 -0.229933 0.0202807 0 -2797.52 -1848.7 0 0 0
15 1 0.05 -0.0961703 -0.0268491 0 650.507 -74.7731 0 0 0
14 1 0.05 -0.129552 0.0245313 0 951.137 -106.099 0 0 0
9 1 0.05 0.138497 0.0267876 0 135.034 171.27 0 0 0
50 2 0.05 0.178136 -0.0115468 0 -473.454 -859.487 0 0 0
2 1 0.05 0.204419 -0.0129515 0 168.125 2145.92 0 0 0
53 2 0.05 -0.201874 0.0743051 0 482.756 629.393 0 0 0
4 1 0.05 -0.187705 0.0383097 0 -1743.24 -2419.44 0 0 0
24 1 0.05 -0.176176 0.0762118 0 362.893 117.028 0 0 0
29 2 0.05 -0.0278296 0.0593056 0 -12.4457 -30.2656 0 0 0
38 2 0.05 0.120112 0.0381221 0 -1397.44 -274.961 0 0 0
42 2 0.05 0.177157 0.0464932 0 -65.3326 918.32 0 0 0
49 2 0.05 0.228966 0.0665054 0 -594.572 1552.88 0 0 0
52 2 0.05 -0.179612 0.11148 0 1490.91 392.531 0 0 0
12 1 0.05 -0.18433 0.109439 0 -680.846 3007.97 0 0 0
10 1 0.05 -0.100112 0.106698 0 377.22 -276.846 0 0 0
22 1 0.05 0.10338 0.113017 0 -2007.53 1691.09 0 0 0
27 2 0.05 0.0871126 0.108256 0 -70.7338 362.449 0 0 0
6 1 0.05 0.127287 0.0934699 0 1838.84 -808.928 0 0 0
20 1 0.05 0.226593 0.0933955 0 -117.74 -85.3257 0 0 0
36 2 0.05 -0.202204 0.160907 0 -570.772 1464.89 0 0 0
35 2 0.05 -0.100372 0.159897 0 138.558 -90.9791 0 0 0
19 1 0.05 -0.0684849 0.171646 0 -332.966 443.886 0 0 0
21 1 0.05 0.00353551 0.138911 0 386.299 -175.581 0 0 0
34 2 0.05 0.00711713 0.14883 0 -118.657 98.3346 0 0 0
46 2 0.05 0.188001 0.175657 0 133.124 -123.505 0 0 0
17 1 0.05 0.206643 0.185282 0 -13.763 63.3912 0 0 0
28 2 0.05 -0.139766 0.240297 0 -567.46 -1179.53 0 0 0
3 1 0.05 -0.193818 0.206915 0 -1.27571 13.105 0 0 0
8 1 0.05 -0.0211356 0.236371 0 284.832 195.804 0 0 0
30 2 0.05 0.11528 0.226872 0 -314.606 -16.4637 0 0 0
