ITEM: TIMESTEP
900000
ITEM: NUMBER OF ATOMS
56
ITEM: BOX BOUNDS pp pp ff
-2.5000000000000000e-01 2.5000000000000000e-01
-2.5000000000000000e-01 2.5000000000000000e-01
-1.0000000000000001e-01 1.0000000000000001e-01
ITEM: ATOMS id type radius x y z fx fy fz c_bendingE c_stretchingE
42 2 0.05 -0.191474 -0.24062 0 -73.6847 301.422 0 0 0
13 1 0.05 -0.133153 -0.247909 0 -267.033 1392.93 0 0 0
15 1 0.05 0.0234755 -0.215848 0 -1486.96 430.559 0 0 0
25 1 0.05 0.0486659 -0.224773 0 2228.94 -575.511 0 0 0
33 2 0.05 0.212159 -0.247528 0 -1282.81 -1469.97 0 0 0
27 2 0.05 0.239751 -0.215559 0 694.185 423.007 0 0 0
4 1 0.05 -0.226802 -0.182402 0 0 0 0 0 0
2 1 0.05 -0.116655 -0.17249 0 9.98113 494.289 0 0 0
40 2 0.05 -0.0182642 -0.177122 0 822.307 -978.082 0 0 0
11 1 0.05 -0.026791 -0.193336 0 -1447.89 658.629 0 0 0
37 2 0.05 0.112053 -0.160507 0 -210.132 -227.861 0 0 0
35 2 0.05 0.23982 -0.15884 0 -390.783 1042.3 0 0 0
56 2 0.05 -0.193259 -0.12413 0 -109.25 -1419.85 0 0 0
50 2 0.05 -0.0545836 -0.133923 0 -558.239 728.56 0 0 0
1 1 0.05 0.0587287 -0.111035 0 -4.81074 -2.01399 0 0 0
38 2 0.05 0.168359 -0.0994495 0 -52.5369 -425.265 0 0 0
24 1 0.05 0.22278 -0.0947819 0 40.489 -218.198 0 0 0
9 1 0.05 -0.200203 -0.0833186 0 457.805 68.1404 0 0 0
51 2 0.05 -0.180308 -0.0774438 0 -503.217 1636.46 0 0 0
34 2 0.05 -0.11601 -0.0809416 0 776.567 235.053 0 0 0
12 1 0.05 -0.0884902 -0.0443282 0 -1505.41 54.7955 0 0 0
17 1 0.05 -0.0385428 -0.0492801 0 1554.67 -154.135 0 0 0
39 2 0.05 0.0164368 -0.0669819 0 355.51 -283.076 0 0 0
48 2 0.05 0.187241 -0.0321477 0 -691.284 -145.727 0 0 0
6 1 0.05 0.149945 -0.0728481 0 -512.736 -84.6564 0 0 0
49 2 0.05 -0.0448193 -0.0185884 0 -420.529 60.9926 0 0 0
3 1 0.05 0.0339627 0.0230252 0 -1212.84 97.6971 0 0 0
18 1 0.05 0.0916133 0.0183813 0 317.041 -19.4961 0 0 0
47 2 0.05 0.0935859 -0.00753666 0 -62.4216 -599.728 0 0 0
21 1 0.05 0.156901 0.0126819 0 915.056 158.527 0 0 0
41 2 0.05 0.232952 0.00306883 0 117.149 -740.564 0 0 0
53 2 0.05 -0.243676 0.0438849 0 745.796 1447.08 0 0 0
7 1 0.05 -0.207655 0.0338698 0 -406.282 -415.769 0 0 0
46 2 0.05 -0.158139 0.0759998 0 -2021.96 -894.596 0 0 0
45 2 0.05 -0.0948242 0.0560161 0 1227.98 -1317.39 0 0 0
5 1 0.05 -0.129124 0.0376118 0 746.835 -1147.93 0 0 0
32 2 0.05 0.0240257 0.0331113 0 509.619 -951.255 0 0 0
28 2 0.05 2.65641e-06 0.0801844 0 -237.953 877.884 0 0 0
31 2 0.05 0.143361 0.0479245 0 327.032 525.276 0 0 0
26 1 0.05 -0.144183 0.0910719 0 -494.986 1064.63 0 0 0
44 2 0.05 -0.1243 0.107059 0 -59.9144 1735.06 0 0 0
55 2 0.05 -0.052366 0.133155 0 1156.65 -1493.35 0 0 0
22 1 0.05 0.0133971 0.130411 0 -10.4725 -4.83918 0 0 0
23 1 0.05 0.235579 0.09424 0 -215.917 229.629 0 0 0
10 1 0.05 -0.204109 0.191858 0 -507.779 -144.942 0 0 0
8 1 0.05 -0.093595 0.149174 0 730.751 -335.752 0 0 0
43 2 0.05 -0.0682221 0.162811 0 -841.107 2083.23 0 0 0
30 2 0.05 0.0154396 0.189635 0 316.692 172.033 0 0 0
14 1 0.05 0.10246 0.171565 0 -1537.41 -1392.39 0 0 0
54 2 0.05 0.167637 0.171563 0 -1398.2 393.118 0 0 0
20 1 0.05 0.148667 0.187556 0 2079.83 -77.3612 0 0 0
52 2 0.05 0.217599 0.154002 0 1353.26 -482.714 0 0 0
29 2 0.05 -0.0931916 0.246746 0 1180.04 943.989 0 0 0
19 1 0.05 -0.127637 0.20772 0 261.759 -1016.07 0 0 0
36 2 0.05 -0.13807 0.219136 0 -668.767 -1176.04 0 0 0
16 1 0.05 0.103494 0.237939 0 267.375 939.247 0 0 0
