ITEM: TIMESTEP
2826
ITEM: NUMBER OF ATOMS
11
ITEM: BOX BOUNDS ff ff ff
-2.5000000000000000e-01 2.5000000000000000e-01
-2.5000000000000000e-01 2.5000000000000000e-01
-1.0000000000000001e-01 1.0000000000000001e-01
ITEM: ATOMS id type radius x y z fx fy fz c_bendingE c_stretchingE
10 1 0.005 -0.0240947 -0.209327 0 0 0 0 0 0
1 1 0.005 0.150959 -0.176668 0 0 0 0 0 0
6 1 0.005 -0.241179 -0.150967 0 0 0 0 0 0
11 1 0.005 0.0497483 -0.0429717 0 0 0 0 0 0
5 1 0.005 0.084437 -0.0220544 0 0 0 0 0 0
2 1 0.005 -0.174296 -0.0141671 0 0 0 0 0 0
4 1 0.005 -0.0100804 -0.014628 0 0 0 0 0 0
3 1 0.005 -0.150384 0.00719195 0 0 0 0 0 0
8 1 0.005 -0.0787511 0.0298947 0 0 0 0 0 0
9 1 0.005 0.229233 0.100161 0 0 0 0 0 0
7 1 0.005 0.101184 0.115638 0 0 0 0 0 0
