ITEM: TIMESTEP
1700000
ITEM: NUMBER OF ATOMS
56
ITEM: BOX BOUNDS pp pp ff
-2.5000000000000000e-01 2.5000000000000000e-01
-2.5000000000000000e-01 2.5000000000000000e-01
-1.0000000000000001e-01 1.0000000000000001e-01
ITEM: ATOMS id type radius x y z fx fy fz c_bendingE c_stretchingE
4 1 0.05 -0.229898 -0.198233 0 576.889 957.703 0 0 0
53 2 0.05 -0.193141 -0.228008 0 420.404 -1071.79 0 0 0
35 2 0.05 -0.112588 -0.241926 0 -425.787 833.532 0 0 0
40 2 0.05 -0.00357079 -0.194453 0 357.622 -255.624 0 0 0
23 1 0.05 0.0312051 -0.217108 0 35.24 -465.43 0 0 0
51 2 0.05 0.235419 -0.229462 0 -322.841 384.324 0 0 0
7 1 0.05 0.195747 -0.211701 0 -739.129 524.875 0 0 0
56 2 0.05 -0.197506 -0.16872 0 -901.824 308.344 0 0 0
1 1 0.05 -0.0903462 -0.194122 0 25.2057 71.1925 0 0 0
9 1 0.05 0.0253358 -0.13959 0 -808.698 -527.456 0 0 0
47 2 0.05 -0.15773 -0.128895 0 944.962 -668.455 0 0 0
25 1 0.05 -0.165988 -0.0970982 0 -1387.51 -259.912 0 0 0
10 1 0.05 -0.113341 -0.087329 0 876.587 -848.069 0 0 0
55 2 0.05 -0.0301022 -0.123411 0 -184.71 494.592 0 0 0
28 2 0.05 0.0705953 -0.108014 0 -362.128 -78.1686 0 0 0
15 1 0.05 0.0859461 -0.101024 0 1880.37 -667.509 0 0 0
36 2 0.05 0.166817 -0.113119 0 1915.7 1922.98 0 0 0
48 2 0.05 0.14696 -0.133395 0 -1520.89 -2045.58 0 0 0
21 1 0.05 0.191119 -0.0989141 0 -96.2575 -238.802 0 0 0
39 2 0.05 -0.158907 -0.0790443 0 -30.821 1592.19 0 0 0
8 1 0.05 -0.0892063 -0.0347382 0 510.922 1107.98 0 0 0
17 1 0.05 0.048088 -0.0716542 0 -1006.44 1485.01 0 0 0
29 2 0.05 -0.249455 -0.00922634 0 1149.31 -1082.56 0 0 0
18 1 0.05 0.0047124 0.00406043 0 231.614 -1208 0 0 0
43 2 0.05 -0.0140832 0.0152286 0 71.6996 -1237.51 0 0 0
38 2 0.05 0.0565862 -0.0219412 0 -225.576 -459.595 0 0 0
5 1 0.05 0.117844 0.00398969 0 0 0 0 0 0
50 2 0.05 0.127557 -0.0048257 0 505.02 111.474 0 0 0
34 2 0.05 0.214264 0.0249469 0 -1107.27 667.947 0 0 0
2 1 0.05 0.222907 -0.0200517 0 96.2575 238.802 0 0 0
41 2 0.05 -0.0511815 0.0542275 0 -654.052 300.236 0 0 0
24 1 0.05 -0.00770707 0.0557963 0 -300.388 348.277 0 0 0
30 2 0.05 0.0424073 0.0590892 0 546.301 745.002 0 0 0
42 2 0.05 -0.225954 0.101537 0 1512.76 -33.8078 0 0 0
3 1 0.05 -0.0961801 0.122335 0 -1532.93 363.736 0 0 0
31 2 0.05 -0.12462 0.0935206 0 -953.914 -313.275 0 0 0
11 1 0.05 -0.04771 0.110669 0 1022.94 279.871 0 0 0
37 2 0.05 -0.0653685 0.127319 0 679.633 871.912 0 0 0
13 1 0.05 0.059734 0.102012 0 1590.7 -2996.7 0 0 0
22 1 0.05 0.0477351 0.120918 0 -2253.94 1815.4 0 0 0
14 1 0.05 0.165332 0.113975 0 305.485 -325.664 0 0 0
46 2 0.05 0.168778 0.11895 0 -996.525 -511.575 0 0 0
45 2 0.05 0.222561 0.103274 0 -209.377 120.355 0 0 0
49 2 0.05 -0.133133 0.187333 0 -311.62 -454.891 0 0 0
12 1 0.05 0.107758 0.168354 0 2479.46 -730.914 0 0 0
16 1 0.05 0.0864977 0.178373 0 -2323.81 2174.78 0 0 0
52 2 0.05 0.15126 0.182229 0 729.21 -1674.55 0 0 0
19 1 0.05 -0.193372 0.226357 0 724.851 -302.484 0 0 0
20 1 0.05 -0.121515 0.217843 0 614.673 -141.614 0 0 0
54 2 0.05 -0.0525828 0.237811 0 803.319 -528.755 0 0 0
32 2 0.05 0.0419708 0.202706 0 -840.303 45.8967 0 0 0
44 2 0.05 0.12729 0.244437 0 -576.705 2647.3 0 0 0
27 2 0.05 0.10989 0.196911 0 -1904.67 -989.158 0 0 0
26 1 0.05 0.168329 0.209888 0 311.547 84.6279 0 0 0
33 2 0.05 0.186483 0.217899 0 1893.08 359.218 0 0 0
6 1 0.05 0.249702 0.231749 0 -833.647 -739.717 0 0 0
