ITEM: TIMESTEP
500000
ITEM: NUMBER OF ATOMS
56
ITEM: BOX BOUNDS pp pp ff
-2.5000000000000000e-01 2.5000000000000000e-01
-2.5000000000000000e-01 2.5000000000000000e-01
-1.0000000000000001e-01 1.0000000000000001e-01
ITEM: ATOMS id type radius x y z fx fy fz c_bendingE c_stretchingE
3 1 0.05 -0.219966 -0.203741 0 -6.53928 114.34 0 0 0
33 2 0.05 -0.0849537 -0.214234 0 -423.343 -252.38 0 0 0
24 1 0.05 -0.0849664 -0.213892 0 0 0 0 0 0
28 2 0.05 0.0226334 -0.215028 0 608.917 29.7271 0 0 0
23 1 0.05 0.185613 -0.229832 0 675.239 -394.807 0 0 0
25 1 0.05 0.156989 -0.196638 0 -1184.39 1181.64 0 0 0
56 2 0.05 0.204558 -0.203926 0 949.83 -708.765 0 0 0
38 2 0.05 -0.211172 -0.142144 0 -662.313 -49.3076 0 0 0
32 2 0.05 -0.0307556 -0.158598 0 -407.364 -2107.38 0 0 0
16 1 0.05 -6.93474e-05 -0.153972 0 -446.852 234.803 0 0 0
21 1 0.05 0.0676926 -0.189578 0 170.156 13.7258 0 0 0
53 2 0.05 0.163067 -0.16488 0 -974.975 580.533 0 0 0
2 1 0.05 -0.236038 -0.115968 0 -758.326 -1050.26 0 0 0
6 1 0.05 -0.200769 -0.0967196 0 1887.4 910.745 0 0 0
35 2 0.05 -0.13953 -0.13681 0 693.846 -278.02 0 0 0
29 2 0.05 -0.0265898 -0.126911 0 -102.706 868.466 0 0 0
36 2 0.05 0.0527137 -0.124131 0 594.842 -2098.93 0 0 0
9 1 0.05 0.196601 -0.132669 0 -560.646 -199.354 0 0 0
37 2 0.05 -0.152937 -0.0572216 0 -89.1115 349.644 0 0 0
18 1 0.05 -0.0973727 -0.0494841 0 -2413.19 645.599 0 0 0
12 1 0.05 -0.0659162 -0.0585013 0 1961.3 -1092.9 0 0 0
48 2 0.05 -0.0426022 -0.0745717 0 -1133.78 1022.81 0 0 0
51 2 0.05 0.0353815 -0.0818921 0 -321.487 1083.98 0 0 0
30 2 0.05 0.103147 -0.0800176 0 989.214 593.934 0 0 0
40 2 0.05 0.181139 -0.0828989 0 148.504 -456.895 0 0 0
11 1 0.05 0.214512 -0.0584986 0 -467.187 296.546 0 0 0
4 1 0.05 -0.215883 -0.00228911 0 789.766 -434.153 0 0 0
44 2 0.05 -0.0784881 0.00353854 0 -493.22 -303.833 0 0 0
52 2 0.05 0.0109393 -0.0198295 0 101.196 1029.72 0 0 0
7 1 0.05 -0.0146629 -0.00455669 0 451.899 447.298 0 0 0
22 1 0.05 0.105047 0.00865224 0 0 0 0 0 0
41 2 0.05 0.212195 -0.0225286 0 369.931 719.099 0 0 0
8 1 0.05 0.221251 0.0165613 0 -720.465 592.353 0 0 0
49 2 0.05 -0.23674 0.0693579 0 0 0 0 0 0
20 1 0.05 -0.17536 0.0681486 0 -1710.38 -369.804 0 0 0
1 1 0.05 -0.136984 0.0807994 0 1866.16 365.421 0 0 0
46 2 0.05 -0.0417015 0.0656287 0 138.938 -110.232 0 0 0
27 2 0.05 0.0351387 0.0686641 0 -1012.44 -2633.76 0 0 0
15 1 0.05 -0.248138 0.12751 0 538.74 330.738 0 0 0
43 2 0.05 -0.0710516 0.129563 0 328.983 295.409 0 0 0
39 2 0.05 0.0380792 0.127538 0 -1232.73 2858.83 0 0 0
34 2 0.05 0.0610424 0.0965413 0 2741.52 -132.105 0 0 0
45 2 0.05 0.159599 0.100424 0 -212.97 -1215.23 0 0 0
10 1 0.05 0.187142 0.095875 0 -679.087 -82.3905 0 0 0
50 2 0.05 -0.152607 0.149387 0 -1574.81 -1754.7 0 0 0
14 1 0.05 -0.114687 0.161767 0 258.07 74.4569 0 0 0
47 2 0.05 -0.131311 0.179318 0 946.443 2111.43 0 0 0
13 1 0.05 -0.00799282 0.158163 0 636.31 -1840.48 0 0 0
31 2 0.05 0.169827 0.156916 0 -105.366 -137.451 0 0 0
19 1 0.05 -0.17172 0.224123 0 -64.2351 22.5208 0 0 0
17 1 0.05 -0.0218183 0.198152 0 -635.769 1840.7 0 0 0
54 2 0.05 -0.0226838 0.223297 0 -172.029 -534.661 0 0 0
42 2 0.05 0.0889571 0.209182 0 -64.0425 45.1576 0 0 0
26 1 0.05 0.107816 0.235955 0 -285.655 -582.852 0 0 0
55 2 0.05 0.183622 0.209245 0 370.521 1184.9 0 0 0
5 1 0.05 0.222408 0.225387 0 697.693 -1023.88 0 0 0
