50
 Atoms. Timestep: 0
1 0 0 -0.025
1 0 0 -0.0239796
1 0 0 -0.0229592
1 0 0 -0.0219388
1 0 0 -0.0209184
1 0 0 -0.019898
1 0 0 -0.0188776
1 0 0 -0.0178571
1 0 0 -0.0168367
1 0 0 -0.0158163
1 0 0 -0.0147959
1 0 0 -0.0137755
1 0 0 -0.0127551
1 0 0 -0.0117347
1 0 0 -0.0107143
1 0 0 -0.00969388
1 0 0 -0.00867347
1 0 0 -0.00765306
1 0 0 -0.00663265
1 0 0 -0.00561224
1 0 0 -0.00459184
1 0 0 -0.00357143
1 0 0 -0.00255102
1 0 0 -0.00153061
1 0 0 -0.000510204
1 0 0 0.000510204
1 0 0 0.00153061
1 0 0 0.00255102
1 0 0 0.00357143
1 0 0 0.00459184
1 0 0 0.00561224
1 0 0 0.00663265
1 0 0 0.00765306
1 0 0 0.00867347
1 0 0 0.00969388
1 0 0 0.0107143
1 0 0 0.0117347
1 0 0 0.0127551
1 0 0 0.0137755
1 0 0 0.0147959
1 0 0 0.0158163
1 0 0 0.0168367
1 0 0 0.0178571
1 0 0 0.0188776
1 0 0 0.019898
1 0 0 0.0209184
1 0 0 0.0219388
1 0 0 0.0229592
1 0 0 0.0239796
1 0 0 0.025
