54
 Atoms. Timestep: 0
1 0 0 -0.0475
1 0 0 -0.0455612
1 0 0 -0.0436224
1 0 0 -0.0416837
1 0 0 -0.0397449
1 0 0 -0.0378061
1 0 0 -0.0358673
1 0 0 -0.0339286
1 0 0 -0.0319898
1 0 0 -0.030051
1 0 0 -0.0281122
1 0 0 -0.0261735
1 0 0 -0.0242347
1 0 0 -0.0222959
1 0 0 -0.0203571
1 0 0 -0.0184184
1 0 0 -0.0164796
1 0 0 -0.0145408
1 0 0 -0.012602
1 0 0 -0.0106633
1 0 0 -0.00872449
1 0 0 -0.00678571
1 0 0 -0.00484694
1 0 0 -0.00290816
1 0 0 -0.000969388
1 0 0 0.000969388
1 0 0 0.00290816
1 0 0 0.00484694
1 0 0 0.00678571
1 0 0 0.00872449
1 0 0 0.0106633
1 0 0 0.012602
1 0 0 0.0145408
1 0 0 0.0164796
1 0 0 0.0184184
1 0 0 0.0203571
1 0 0 0.0222959
1 0 0 0.0242347
1 0 0 0.0261735
1 0 0 0.0281122
1 0 0 0.030051
1 0 0 0.0319898
1 0 0 0.0339286
1 0 0 0.0358673
1 0 0 0.0378061
1 0 0 0.0397449
1 0 0 0.0416837
1 0 0 0.0436224
1 0 0 0.0455612
1 0 0 0.0475
2 -0.009 0 0.0075
2 -0.009 0 -0.0075
3 0.009 0 0.0075
3 0.009 0 -0.0075
