ITEM: TIMESTEP
0
ITEM: NUMBER OF ATOMS
50
ITEM: BOX BOUNDS ff ff ff
-5.0000000000000003e-02 5.0000000000000003e-02
-1.4999999999999999e-02 1.4999999999999999e-02
-5.0000000000000003e-02 5.0000000000000003e-02
ITEM: ATOMS id type radius x y z fx fy fz c_bendingE c_stretchingE
1 1 0.0015 0 0 -0.025 0 0 -1.419e-15 0 6.63543e-34
2 1 0.0015 0 0 -0.0239796 0 0 2.94903e-15 0 1.32709e-33
3 1 0.0015 0 0 -0.0229592 0 0 0 0 1.32709e-33
4 1 0.0015 0 0 -0.0219388 0 0 -2.94903e-15 0 1.32709e-33
5 1 0.0015 0 0 -0.0209184 0 0 0 0 1.32709e-33
6 1 0.0015 0 0 -0.019898 0 0 2.94903e-15 0 1.32709e-33
7 1 0.0015 0 0 -0.0188776 0 0 0 0 1.32709e-33
8 1 0.0015 0 0 -0.0178571 0 0 -2.94903e-15 0 1.32709e-33
9 1 0.0015 0 0 -0.0168367 0 0 1.11022e-16 0 1.32709e-33
10 1 0.0015 0 0 -0.0158163 0 0 1.419e-15 0 6.63543e-34
11 1 0.0015 0 0 -0.0147959 0 0 1.419e-15 0 6.63543e-34
12 1 0.0015 0 0 -0.0137755 0 0 -1.53003e-15 0 6.63543e-34
13 1 0.0015 0 0 -0.0127551 0 0 0 0 0
14 1 0.0015 0 0 -0.0117347 0 0 1.11022e-16 0 0
15 1 0.0015 0 0 -0.0107143 0 0 -1.30798e-15 0 6.63543e-34
16 1 0.0015 0 0 -0.00969388 0 0 2.72699e-15 0 1.32709e-33
17 1 0.0015 0 0 -0.00867347 0 0 0 0 1.32709e-33
18 1 0.0015 0 0 -0.00765306 0 0 -2.94903e-15 0 1.32709e-33
19 1 0.0015 0 0 -0.00663265 0 0 -1.11022e-16 0 1.32709e-33
20 1 0.0015 0 0 -0.00561224 0 0 1.11022e-16 0 1.32709e-33
21 1 0.0015 0 0 -0.00459184 0 0 2.94903e-15 0 1.32709e-33
22 1 0.0015 0 0 -0.00357143 0 0 0 0 1.32709e-33
23 1 0.0015 0 0 -0.00255102 0 0 0 0 1.32709e-33
24 1 0.0015 0 0 -0.00153061 0 0 -2.94903e-15 0 1.32709e-33
25 1 0.0015 0 0 -0.000510204 0 0 0 0 1.32709e-33
26 1 0.0015 0 0 0.000510204 0 0 2.94903e-15 0 1.32709e-33
27 1 0.0015 0 0 0.00153061 0 0 -2.83801e-15 0 1.32709e-33
28 1 0.0015 0 0 0.00255102 0 0 2.83801e-15 0 1.32709e-33
29 1 0.0015 0 0 0.00357143 0 0 -1.11022e-16 0 1.32709e-33
30 1 0.0015 0 0 0.00459184 0 0 -6.1201e-15 0 6.63543e-33
31 1 0.0015 0 0 0.00561224 0 0 3.39312e-15 0 6.63543e-33
32 1 0.0015 0 0 0.00663265 0 0 6.1201e-15 0 6.63543e-33
33 1 0.0015 0 0 0.00765306 0 0 -6.1201e-15 0 6.63543e-33
34 1 0.0015 0 0 0.00867347 0 0 6.00908e-15 0 6.63543e-33
35 1 0.0015 0 0 0.00969388 0 0 -1.23512e-14 0 2.25605e-32
36 1 0.0015 0 0 0.0107143 0 0 1.23512e-14 0 2.25605e-32
37 1 0.0015 0 0 0.0117347 0 0 -6.1201e-15 0 6.63543e-33
38 1 0.0015 0 0 0.0127551 0 0 0 0 1.32709e-33
39 1 0.0015 0 0 0.0137755 0 0 6.1201e-15 0 6.63543e-33
40 1 0.0015 0 0 0.0147959 0 0 -1.23512e-14 0 2.25605e-32
41 1 0.0015 0 0 0.0158163 0 0 1.23512e-14 0 2.25605e-32
42 1 0.0015 0 0 0.0168367 0 0 -6.1201e-15 0 6.63543e-33
43 1 0.0015 0 0 0.0178571 0 0 0 0 1.32709e-33
44 1 0.0015 0 0 0.0188776 0 0 6.23113e-15 0 6.63543e-33
45 1 0.0015 0 0 0.019898 0 0 -6.1201e-15 0 6.63543e-33
46 1 0.0015 0 0 0.0209184 0 0 6.00908e-15 0 6.63543e-33
47 1 0.0015 0 0 0.0219388 0 0 -1.23512e-14 0 2.25605e-32
48 1 0.0015 0 0 0.0229592 0 0 1.23512e-14 0 2.25605e-32
49 1 0.0015 0 0 0.0239796 0 0 -6.1201e-15 0 6.63543e-33
50 1 0.0015 0 0 0.025 0 0 1.419e-15 0 6.63543e-34
